LAMMPS data file via write_data, version 31 Mar 2017, timestep = 100000

5576 atoms
1 atom types

-1.0344501870615108e-01 3.7423511165298649e+01 xlo xhi
-8.4690207169339615e-02 1.2386785564425390e+01 ylo yhi
-9.7383260936196869e-02 1.2399478618195594e+01 zlo zhi
2.7055299763014240e-02 -2.7481208843894399e-02 -1.4409077533589271e-02 xy xz yz

Masses

1 1

Atoms # atomic

1 1 3.7383154121532954e+01 1.4601277510381913e-02 6.3694055964793328e-02 -1 0 0
2 1 6.8158804732925637e-01 7.8272346977384655e-01 3.3222761322580563e-01 0 0 0
3 1 7.8715487653403460e-01 4.2382502086084517e-02 1.0600128692918820e+00 0 0 0
4 1 3.7391771258117139e+01 6.2626028111279763e-01 9.9618875816148278e-01 -1 0 0
5 1 1.5068325342695574e+00 1.0592187623130450e-01 2.4489042654844939e-01 0 0 0
6 1 2.3756035680267429e+00 8.1341483998787645e-01 2.3266865292572131e-01 0 0 0
7 1 2.3890437423167490e+00 2.0417740921385447e-01 1.0522197822970127e+00 0 0 0
8 1 1.5359835701518227e+00 7.8387951465428163e-01 1.0716859368476173e+00 0 0 0
9 1 3.1400455116199111e+00 1.1321178109688823e-01 2.7940478403592883e-01 0 0 0
10 1 4.0255868829001322e+00 8.2480768694332129e-01 1.4845948959974534e-01 0 0 0
11 1 3.8234094923675843e+00 2.3392600607442054e-02 1.0714443543442420e+00 0 0 0
12 1 3.1926205088258972e+00 8.7935670465054361e-01 9.5540674132255754e-01 0 0 0
13 1 4.6080822991865169e+00 -3.5017135140681062e-02 2.2521436371107695e-01 0 0 0
14 1 5.6602770913889220e+00 8.9804452739195995e-01 3.4488003425535135e-01 0 0 0
15 1 5.5947505291107325e+00 1.4778028096771598e-01 9.4722793735531763e-01 0 0 0
16 1 4.7568687057501400e+00 8.1659824953007643e-01 9.2347496362216797e-01 0 0 0
17 1 6.4953755166187159e+00 8.4615362542866890e-02 1.8066630536623074e-01 0 0 0
18 1 7.0718666079585724e+00 8.9676617261499747e-01 3.2124686924969775e-01 0 0 0
19 1 7.1685343533877353e+00 4.5502562265864133e-02 8.5066409522685937e-01 0 0 0
20 1 6.3947494150679649e+00 8.7840784967544949e-01 1.0550515510374914e+00 0 0 0
21 1 8.0389141846773846e+00 2.1398712977960122e-01 2.8202049416802927e-01 0 0 0
22 1 8.7396726602554082e+00 1.0261108283169034e+00 2.9866086609451425e-01 0 0 0
23 1 9.0078440264956683e+00 -6.0734175038115512e-02 9.4886060586881360e-01 0 0 0
24 1 7.8867769466351874e+00 9.0061804442220761e-01 1.0506667543407429e+00 0 0 0
25 1 9.6414853016487321e+00 -7.5249386684794750e-04 3.5098577750029669e-02 0 0 0
26 1 1.7197986738904245e+01 6.0193785388623233e+00 8.5201722406522649e+00 0 0 -1
27 1 1.0993895215181908e+01 1.1981066053714757e+01 1.7762323048897688e-01 0 -1 0
28 1 9.6192566000940580e+00 9.2656458291426080e-01 7.4281235123303768e-01 0 0 0
29 1 3.5886889568289845e+01 1.1694433576240305e+01 1.1968361475053012e+01 0 0 0
30 1 1.3078185894418191e+01 7.5390805849844984e+00 2.7468777431393101e+00 0 -1 -1
31 1 2.2857929051337546e+01 7.6505852232333305e-01 1.1335545833573143e+01 0 0 -1
32 1 1.9232327182274446e+01 3.2278362155820162e+00 1.1264927703614976e+01 0 -1 0
33 1 -9.1834446150623694e-02 1.6157127637648208e+00 2.3280745538308251e-01 0 0 0
34 1 7.2597805142949456e-01 2.3142373071185838e+00 2.0165077554250066e-01 0 0 0
35 1 5.7790597591146187e-01 1.7161973442493506e+00 1.1210959328152097e+00 0 0 0
36 1 3.7413153110236344e+01 2.3556437756586752e+00 9.1305347683981197e-01 -1 0 0
37 1 1.3958360740007920e+00 1.4429056574033794e+00 2.3774409776794536e-01 0 0 0
38 1 2.2949577009047202e+00 2.3613001292181304e+00 2.0342669765457549e-01 0 0 0
39 1 2.4265550573631733e+00 1.6537124601735331e+00 8.8755425768309826e-01 0 0 0
40 1 1.4939363756437496e+00 2.3127037687400542e+00 1.0522586552808466e+00 0 0 0
41 1 3.2124363111594456e+00 1.5204455959040575e+00 1.6749571403243946e-01 0 0 0
42 1 3.9741073617084215e+00 2.3049248087745062e+00 1.6065140625332763e-01 0 0 0
43 1 3.9900168179262359e+00 1.6270595460175818e+00 9.5784969340697179e-01 0 0 0
44 1 3.2779069696540546e+00 2.4272744376912740e+00 9.6569615192136826e-01 0 0 0
45 1 4.7515622845304648e+00 1.5424593820000048e+00 2.2677569450654156e-01 0 0 0
46 1 5.4862562204241332e+00 2.4592672610422164e+00 3.6809246325820810e-01 0 0 0
47 1 5.5099962288103566e+00 1.6131694713100690e+00 1.0258366458708006e+00 0 0 0
48 1 4.6329519346966377e+00 2.5172552681490603e+00 1.0021605666748215e+00 0 0 0
49 1 6.3110090713903491e+00 1.7761420430215868e+00 3.4634127525008079e-01 0 0 0
50 1 7.1977806272294602e+00 2.2740905151373085e+00 4.7242549122378952e-01 0 0 0
51 1 7.1265546247612797e+00 1.7273364221113197e+00 1.3159200455329425e+00 0 0 0
52 1 6.3587801833302784e+00 2.4719549722974605e+00 1.0443851310422214e+00 0 0 0
53 1 7.9604839805210608e+00 1.6424348078128728e+00 3.0175386286684869e-01 0 0 0
54 1 8.7982073961145559e+00 2.3983607968536118e+00 1.9811405582430797e-01 0 0 0
55 1 8.8659189251718793e+00 1.7149635779099215e+00 1.0892204939040406e+00 0 0 0
56 1 8.0688270062452503e+00 2.4188933748121713e+00 1.1344717565780245e+00 0 0 0
57 1 9.4709448563094583e+00 9.6929395161153531e-01 1.2026987337081788e+01 0 0 -1
58 1 1.9932530301088942e+01 9.0197005774001298e+00 1.2198231474872859e+01 0 -1 -2
59 1 3.6688511742960507e+01 1.0975815688341649e+01 1.1869405876053204e+01 0 0 0
60 1 9.6451776871799488e+00 1.3975667700618053e+00 1.7682463775051009e+00 0 0 0
61 1 1.4653050732769824e+01 1.7906582154337831e+00 8.2391547389808117e+00 0 0 0
62 1 3.6690215654187845e+01 1.1674884336573593e+01 1.1050109402209223e+01 0 0 0
63 1 1.1987072914522773e+01 2.5509121053689260e-01 7.8654580069550395e+00 0 0 -1
64 1 1.4245967931826780e+01 1.2043140241829700e+01 5.0203582631376884e+00 0 0 -1
65 1 5.6043513476769780e-02 3.1903534479316935e+00 1.8424408897445965e-01 0 0 0
66 1 8.7399866438554208e-01 4.0173244977981488e+00 1.6257876170386776e-01 0 0 0
67 1 7.2220652259791229e-01 3.0393313324017877e+00 9.1580677587748549e-01 0 0 0
68 1 3.7400565324783493e+01 4.1675130184763898e+00 9.9677788057853522e-01 -1 0 0
69 1 1.5357969878816515e+00 3.2742919276413178e+00 2.0823100003007400e-01 0 0 0
70 1 2.4082836127066196e+00 3.9357229555680329e+00 2.7051901131519085e-01 0 0 0
71 1 2.3233512466915500e+00 3.1305507687925362e+00 1.0201254597173719e+00 0 0 0
72 1 1.6357808999841974e+00 3.9691123834867703e+00 9.8322808255754546e-01 0 0 0
73 1 3.2559468012791872e+00 3.1540779754823571e+00 2.2699214757940045e-01 0 0 0
74 1 3.9441888539097993e+00 3.9700876301275825e+00 2.0696210940678583e-01 0 0 0
75 1 3.9678989197450116e+00 3.3162603887981312e+00 1.0025300326467053e+00 0 0 0
76 1 3.1663377225217735e+00 3.8991704300376191e+00 1.1211184743740956e+00 0 0 0
77 1 4.7100086079347214e+00 3.2250565183474276e+00 1.7812508064128679e-01 0 0 0
78 1 5.5211660766276793e+00 4.0376765694334438e+00 4.5516089731474185e-01 0 0 0
79 1 5.5318459638274673e+00 3.1946756345214817e+00 1.1364585902139948e+00 0 0 0
80 1 4.7319349938604702e+00 3.9368710605552630e+00 1.0092175721878589e+00 0 0 0
81 1 6.2952416465803624e+00 3.2515825530520202e+00 2.7682926448636441e-01 0 0 0
82 1 7.3771901579218104e+00 3.9791454219838309e+00 3.3788918656276151e-01 0 0 0
83 1 7.2005871197668672e+00 3.0905533408339454e+00 1.0183389807145509e+00 0 0 0
84 1 6.4406681270606780e+00 3.9071128670951745e+00 1.0849262706287592e+00 0 0 0
85 1 8.0443298101924263e+00 3.2236451724967101e+00 2.5248556751965762e-01 0 0 0
86 1 8.7905826620995420e+00 3.9264183072607448e+00 3.4875473112099770e-01 0 0 0
87 1 8.7984413516657582e+00 3.1148196290443182e+00 1.0676458859723712e+00 0 0 0
88 1 8.1196578776740154e+00 3.8889142087080737e+00 1.0893551888729420e+00 0 0 0
89 1 9.6146798279130614e+00 2.5222821020496471e+00 1.0739798373501876e+00 0 0 0
90 1 1.3199618899841642e+01 1.2146358209623397e+01 8.5359438911585137e+00 0 0 -1
91 1 3.5695688776259217e+01 1.0967240489277158e+01 1.1175563588704968e+01 0 0 0
92 1 9.5092060812397143e+00 3.9217548994270306e+00 1.0675785358230792e+00 0 0 0
93 1 1.2288980538751485e+01 9.8041270802812424e+00 5.8133749277530349e+00 0 0 0
94 1 2.1154122816566826e+01 5.7562035801039189e+00 2.9119256596535292e-01 0 0 0
95 1 2.1292312369315471e+01 1.0751671413286134e+01 -4.5985742737522817e-02 0 -1 0
96 1 1.6171465979748497e+01 7.5402993865182077e+00 8.3752587648400834e+00 0 -2 -1
97 1 4.0091874513626669e-02 4.7723440633242475e+00 1.1461666145040841e-01 0 0 0
98 1 6.9644038349640902e-01 5.5900330752045067e+00 1.0272673525817053e-01 0 0 0
99 1 8.3671071832905852e-01 4.8314743445673392e+00 8.7709052454530201e-01 0 0 0
100 1 -8.6371401692387037e-02 5.4793669623698058e+00 9.4926988372286947e-01 0 0 0
101 1 1.6443989875272789e+00 4.8272619309416429e+00 1.3400509668821942e-01 0 0 0
102 1 2.2874081004518643e+00 5.6319377327434905e+00 2.5007698555309121e-01 0 0 0
103 1 2.2723540601948224e+00 4.8705189228738623e+00 9.4977514937815855e-01 0 0 0
104 1 1.5148773567870335e+00 5.7324980073278411e+00 1.0950965164591713e+00 0 0 0
105 1 3.0665719153453388e+00 4.6794813419801686e+00 3.6054043530777258e-01 0 0 0
106 1 3.8299078394628432e+00 5.4531299263946851e+00 1.6522503482925277e-01 0 0 0
107 1 3.8373415727005971e+00 4.7197920621030907e+00 1.0890875267353879e+00 0 0 0
108 1 3.1475768370838089e+00 5.4802446639988709e+00 1.0021271997380328e+00 0 0 0
109 1 4.6695495195988226e+00 4.7270730662627010e+00 3.3415289770227669e-01 0 0 0
110 1 5.6486070517923004e+00 5.5622005890641795e+00 3.9408473504568836e-01 0 0 0
111 1 5.5627199380453698e+00 4.7429628604665632e+00 1.1740910166792653e+00 0 0 0
112 1 4.5598852124426879e+00 5.5472475628123199e+00 9.0645428179733001e-01 0 0 0
113 1 6.3240171966527736e+00 4.7570208162380787e+00 4.4904323045925487e-01 0 0 0
114 1 7.2554621101422017e+00 5.5548739387232091e+00 2.4988934649014027e-01 0 0 0
115 1 7.2155948166987267e+00 4.8590874950862322e+00 9.9183908398948750e-01 0 0 0
116 1 6.4442498512754867e+00 5.6145730471040123e+00 1.0427923830585530e+00 0 0 0
117 1 8.2166823293142777e+00 4.7990663708242298e+00 2.9324480949540477e-01 0 0 0
118 1 8.8757836236724508e+00 5.7199901597391491e+00 1.3137762058397956e-01 0 0 0
119 1 8.7662039660787663e+00 4.6509376586010820e+00 1.1168836739573038e+00 0 0 0
120 1 8.1783695855711080e+00 5.4783241963269171e+00 1.0242571433702534e+00 0 0 0
121 1 9.5048371660266859e+00 4.8322509317858531e+00 4.4043001593476538e-01 0 0 0
122 1 9.3368645584421905e+00 5.6993725343195756e+00 1.1109039012681752e+00 0 0 0
123 1 2.1247778967803317e+01 1.5735342514413140e+00 5.9117731858911560e+00 0 1 0
124 1 8.7375739331876225e+00 5.4281240561683619e+00 1.8338504393393307e+00 0 0 0
125 1 1.0819271215842903e+01 6.4036427152029596e+00 9.0027258724139081e+00 0 -1 0
126 1 1.1547542071285434e+01 4.1043699123506237e+00 1.0910601532649547e+01 0 0 -1
127 1 1.1106419114612212e+01 2.2012286636716221e+00 1.0394853480314563e+01 0 0 -1
128 1 1.9650266542385719e+01 3.8971493046791381e+00 2.0737782270199139e+00 0 0 1
129 1 -7.0947214903581163e-02 6.2880940832588559e+00 2.1124629347208834e-01 0 0 0
130 1 6.4717482699586804e-01 7.0567288495563920e+00 2.0038343937961456e-01 0 0 0
131 1 7.5955294750641422e-01 6.3767867264742959e+00 9.6071530820986983e-01 0 0 0
132 1 3.7417830765744753e+01 7.2519430808877630e+00 8.9634469112070436e-01 -1 0 0
133 1 1.4416666861716072e+00 6.3395379155748195e+00 1.5212560542687409e-01 0 0 0
134 1 2.2678826109051839e+00 7.0467922017656157e+00 1.8648899669360097e-01 0 0 0
135 1 2.2577144677765157e+00 6.4637924896618584e+00 1.0092918580990140e+00 0 0 0
136 1 1.4277990040117554e+00 7.0414990908697837e+00 9.0550586899325314e-01 0 0 0
137 1 3.0641285922008987e+00 6.3087861858777980e+00 1.0422619630250368e-01 0 0 0
138 1 3.8860902687251815e+00 7.2776346715171503e+00 1.8681346189446990e-01 0 0 0
139 1 3.8162327907860174e+00 6.3825477948416722e+00 8.9871645018460666e-01 0 0 0
140 1 3.0816775554676470e+00 7.1243785277765683e+00 8.9585979745283473e-01 0 0 0
141 1 4.7067340877228157e+00 6.4022327221894315e+00 2.0579592698407634e-01 0 0 0
142 1 5.5934128255835072e+00 7.1095269370958558e+00 1.3693801783562262e-01 0 0 0
143 1 5.6653836843932854e+00 6.4083293747653736e+00 1.0014493566856895e+00 0 0 0
144 1 4.7524656298806871e+00 7.1435674931968496e+00 1.1164707806830636e+00 0 0 0
145 1 6.4000441047423182e+00 6.4927353070912179e+00 2.9951477789704850e-01 0 0 0
146 1 7.1560957234482769e+00 7.1445438475545044e+00 2.5842402550445376e-01 0 0 0
147 1 7.2869418508780370e+00 6.3215336020160393e+00 8.9460745410478326e-01 0 0 0
148 1 6.3865482261924704e+00 7.1635854384985231e+00 1.0877116556686244e+00 0 0 0
149 1 8.0078227760497498e+00 6.3041231949137595e+00 1.7413469097525530e-01 0 0 0
150 1 8.8839604927155911e+00 7.2340760553205925e+00 1.1860726299440913e-01 0 0 0
151 1 8.7457195987081384e+00 6.4716415313387277e+00 8.5148575989724240e-01 0 0 0
152 1 8.0398502999760133e+00 7.1734705615171235e+00 8.1185098787359444e-01 0 0 0
153 1 1.0208543338307830e+01 5.7743751166704085e+00 5.0409473604033284e-01 0 0 0
154 1 1.1522867345266746e+01 8.2480163345121815e-01 8.6765202776112247e+00 0 1 -1
155 1 1.2624197652529393e+01 1.2304670959013214e+01 1.0987320105581052e+01 0 0 -1
156 1 9.5173710992854268e+00 6.4730731145415561e+00 2.4031741295996267e-01 0 0 0
157 1 1.2924561206323030e+01 2.0408588755570181e+00 5.7018022832928947e+00 0 0 -1
158 1 1.7413774887108815e+01 9.5597629996536568e+00 1.2218100150935125e+00 0 -1 0
159 1 2.6181734060753783e+01 7.6091783616929565e+00 7.9751587637443828e+00 0 0 -1
160 1 2.4470493652370035e+01 6.2291645213733515e+00 7.1830051601779079e+00 0 0 0
161 1 -3.3339324600955317e-02 7.8107372421270078e+00 1.2062184532990586e-01 0 0 0
162 1 6.9813509855111078e-01 8.6333861893273696e+00 2.6160562611743915e-01 0 0 0
163 1 6.9766202698011581e-01 7.8425163590478091e+00 9.7623707984304753e-01 0 0 0
164 1 3.7376477073106535e+01 8.6748222778562134e+00 8.8724807918811188e-01 -1 0 0
165 1 1.5569481725241281e+00 7.8946639254438020e+00 5.3303179059201955e-02 0 0 0
166 1 2.2892818152462349e+00 8.6102397077773141e+00 1.2075466673486515e-01 0 0 0
167 1 2.2356587964362373e+00 7.8672930891312660e+00 9.6853303684890868e-01 0 0 0
168 1 1.6166370157423366e+00 8.7666232731494667e+00 9.5755261050929708e-01 0 0 0
169 1 3.1169252790371962e+00 7.9530486087281940e+00 1.9183095420294827e-01 0 0 0
170 1 3.9149817871730797e+00 8.6461754693207187e+00 1.6250286587407725e-01 0 0 0
171 1 4.0385950078036013e+00 7.8175873734761225e+00 1.0982686421498442e+00 0 0 0
172 1 3.2608141024285975e+00 8.6988427605601313e+00 1.0468588475956162e+00 0 0 0
173 1 4.8281776995754084e+00 8.0226821833352773e+00 2.6049927934542338e-01 0 0 0
174 1 5.5525089053999093e+00 8.7240099116098619e+00 3.6100885390138032e-02 0 0 0
175 1 5.6945627586874208e+00 7.9408320973729882e+00 9.2314700641934166e-01 0 0 0
176 1 4.6737638663647303e+00 8.7656509433498417e+00 9.5129955638878383e-01 0 0 0
177 1 6.3514524460124244e+00 7.9865000878819927e+00 1.4027249340408993e-01 0 0 0
178 1 7.1197460023438603e+00 8.8409838072309981e+00 1.6095228752585322e-01 0 0 0
179 1 7.0655949804726745e+00 8.0282933831702703e+00 8.0946047172345992e-01 0 0 0
180 1 6.2347228298507433e+00 8.6971810342741644e+00 9.5888416027183010e-01 0 0 0
181 1 8.4286322734392840e+00 8.1739707463761739e+00 1.4575734784562888e-01 0 0 0
182 1 9.2413791087510333e+00 9.0565152597748337e+00 1.8570256882252528e-02 0 0 0
183 1 8.8540169410193350e+00 7.9406325580230703e+00 1.1370116546153770e+00 0 0 0
184 1 7.9311935715602138e+00 8.6886798529906226e+00 9.2631509173863602e-01 0 0 0
185 1 9.8272475542131374e+00 8.2265925393895944e+00 7.2530266833391077e-01 0 0 0
186 1 1.5969431636245641e+01 4.1280667019891668e+00 4.2954351650431910e-01 0 0 -1
187 1 9.9893687332338246e+00 1.0701701664996992e+01 6.2680956853523853e+00 0 1 0
188 1 9.7326121382655408e+00 9.1256723027285265e+00 1.1553775350208815e+00 0 0 0
189 1 1.0645737569372812e+01 2.8775421954713307e+00 7.9689736706276699e+00 0 0 0
190 1 3.4240198842882705e+01 1.1871188635338475e+01 1.1990703023284478e+01 0 0 0
191 1 2.2085977751248588e+01 3.6117398350679827e-02 4.1336984849424381e+00 0 1 0
192 1 1.7935487325193623e+01 8.7056989961830922e-01 2.5043661489871938e+00 0 1 0
193 1 2.4732962587502544e-02 9.4253145365017925e+00 8.5727189427409090e-02 0 0 0
194 1 6.7463421755626973e-01 1.0249726187887594e+01 1.1209361334960702e-01 0 0 0
195 1 8.1301869885431932e-01 9.5644080161471692e+00 8.4361051420124566e-01 0 0 0
196 1 -3.2852120341551619e-02 1.0149331263979155e+01 9.1730861896267601e-01 0 0 0
197 1 1.5225275411541590e+00 9.4408533333367863e+00 9.5021772660249304e-02 0 0 0
198 1 2.4057079422978713e+00 1.0226315309180771e+01 1.5282968744985503e-01 0 0 0
199 1 2.5501054453947889e+00 9.4241462636649693e+00 7.5554421793329296e-01 0 0 0
200 1 1.6168072318524609e+00 1.0202252231155240e+01 9.0756404014786662e-01 0 0 0
201 1 3.2703983796253731e+00 9.4022890695379520e+00 5.3750988861714699e-02 0 0 0
202 1 3.9308958076155207e+00 1.0253225951376635e+01 5.7149362400164938e-02 0 0 0
203 1 4.0273802507656518e+00 9.5908851762452869e+00 9.2405081984053927e-01 0 0 0
204 1 3.2873264310079344e+00 1.0236070398213982e+01 9.0286648511989376e-01 0 0 0
205 1 4.7844107618218583e+00 9.3535166274956918e+00 -6.4096534663860658e-02 0 0 0
206 1 5.5636686236117479e+00 1.0214080622695700e+01 1.5753991241337717e-01 0 0 0
207 1 5.5968895976589375e+00 9.5102155169350695e+00 9.2996883966983179e-01 0 0 0
208 1 4.7872626258970694e+00 1.0209413556514415e+01 8.6969966380128905e-01 0 0 0
209 1 6.2884653176951968e+00 9.4484082153719253e+00 2.0154786024121862e-01 0 0 0
210 1 7.0657759990805484e+00 1.0261961007333690e+01 2.7845708005362735e-02 0 0 0
211 1 6.9856446881857215e+00 9.5169406888337189e+00 1.0260928241325282e+00 0 0 0
212 1 6.2930883719985173e+00 1.0325589341452456e+01 8.7837015156373444e-01 0 0 0
213 1 7.9839707765688273e+00 9.3301453915783981e+00 1.1670542419764784e-01 0 0 0
214 1 8.9957429484676723e+00 8.9546502971940267e+00 1.1435032896137113e+01 0 0 -1
215 1 8.8214368273620423e+00 9.6260182802457948e+00 9.1284181363967454e-01 0 0 0
216 1 7.7691126184147512e+00 1.0057708183016677e+01 8.6786496943356561e-01 0 0 0
217 1 9.0424717925135134e+00 9.8801867915045190e+00 1.2027859988681143e+01 0 0 -1
218 1 9.3223597670936620e+00 1.0719138416018019e+01 5.7264915867080185e-02 0 0 0
219 1 1.3195204204258147e+01 1.0255795774550826e+01 1.0395714666887343e+01 0 1 0
220 1 1.0387495591682843e+01 1.0479413649938033e+01 -1.0434641205865500e-02 0 0 0
221 1 1.2401827807549374e+01 9.0046273259172143e+00 8.5004222679982766e-01 0 -1 0
222 1 2.1808041162744271e+01 8.9960276209050853e+00 1.1635792727223190e+01 0 -1 -1
223 1 1.7686655513134387e+01 7.7241127445117170e+00 1.9911866058258241e+00 0 -1 0
224 1 1.8804987129585339e+01 3.8199412039825420e+00 6.8985502716967479e+00 0 1 0
225 1 -7.6706753979966541e-02 1.0917216625078318e+01 2.7652472346221868e-01 0 0 0
226 1 6.7500120440640732e-01 1.1775808959834425e+01 2.2740702626296727e-01 0 0 0
227 1 6.8413587324009539e-01 1.1009440863270282e+01 1.0390495254159691e+00 0 0 0
228 1 3.7357890028280650e+01 1.1792749447636076e+01 9.9047833264652740e-01 -1 0 0
229 1 1.4996281912270437e+00 1.0929447630578371e+01 2.6055035666626442e-01 0 0 0
230 1 2.2893839086089827e+00 1.1948515811301098e+01 3.8470694035806602e-01 0 0 0
231 1 2.2968628420520987e+00 1.1029025547993340e+01 9.3405987408734470e-01 0 0 0
232 1 1.4836718030630673e+00 1.1703374877498002e+01 9.6804949963244091e-01 0 0 0
233 1 3.0448021334767770e+00 1.0985960288475894e+01 1.5962623906670670e-01 0 0 0
234 1 3.8301615206210902e+00 1.1752803372380239e+01 1.9678556488018895e-01 0 0 0
235 1 3.9200493589422267e+00 1.1041780232295439e+01 8.9222032620535363e-01 0 0 0
236 1 3.1255182750711445e+00 1.1718777403199676e+01 9.4718948167791384e-01 0 0 0
237 1 4.7262410773593695e+00 1.1128156495946239e+01 2.0316950598120176e-01 0 0 0
238 1 5.5870521435929943e+00 1.1843361717082910e+01 1.8212930929661786e-01 0 0 0
239 1 5.6195415334208274e+00 1.1113753598511456e+01 9.2392359230257237e-01 0 0 0
240 1 4.7647090447364437e+00 1.1788388650008097e+01 9.8781460751365202e-01 0 0 0
241 1 6.4276827268370713e+00 1.1113825367959565e+01 1.7808525293135047e-01 0 0 0
242 1 7.3361970870032165e+00 1.1815359828065757e+01 7.3058804803041721e-02 0 0 0
243 1 7.2555020216369410e+00 1.1028781171642599e+01 7.9927364500633591e-01 0 0 0
244 1 6.4649545319113875e+00 1.1742883010704405e+01 9.3009211210129483e-01 0 0 0
245 1 7.9761805748591668e+00 1.0872379829694687e+01 -8.8084278843651331e-02 0 0 0
246 1 9.0003195936145097e+00 1.1706874574357276e+01 1.2342524158270724e+01 0 0 -1
247 1 8.7318319244745801e+00 1.0718823782549087e+01 1.0832203693194880e+00 0 0 0
248 1 8.3119866739074162e+00 1.1637661511672450e+01 9.1249548941468395e-01 0 0 0
249 1 1.1527989168252187e+01 1.1063864644339640e+01 9.6440325845877722e-02 0 0 0
250 1 2.0819214630887274e+01 1.7927180379744558e+00 4.5178041360931154e-01 0 2 -1
251 1 1.8376135598292734e+01 3.6170275591484318e+00 1.0173084293027497e+01 0 1 0
252 1 9.4038828445965379e+00 1.1432517626255894e+01 9.0421353611051813e-01 0 0 0
253 1 3.4973435449301228e+01 1.0952376034877233e+01 1.1954494217588380e+01 0 0 0
254 1 3.5008012475099612e+01 1.1823624452384051e+01 1.1280020564106071e+01 0 0 0
255 1 2.1308050032603465e+01 8.0120428338069942e+00 1.1473886131687777e+01 0 2 -1
256 1 1.0054451336101941e+01 1.1513162104922728e+01 1.2385707102589787e+01 0 0 -1
257 1 -6.7135643619524427e-02 -1.9347072797907233e-02 1.8298402305395212e+00 0 0 0
258 1 6.7168733831235283e-01 9.5698873623854497e-01 1.7240461081878955e+00 0 0 0
259 1 6.6121306599530782e-01 -4.5926206399813055e-02 2.5309421314876150e+00 0 0 0
260 1 -6.9458293363496515e-02 7.4780892688034706e-01 2.5521986192119943e+00 0 0 0
261 1 1.3970572525369116e+00 -7.8381558632015333e-02 1.9406206066700102e+00 0 0 0
262 1 2.3200353364215376e+00 9.0018536086792689e-01 1.7974787054609738e+00 0 0 0
263 1 2.3420953789846237e+00 7.9717558780692699e-02 2.5248420711647803e+00 0 0 0
264 1 1.3993580969683748e+00 7.5992650497441805e-01 2.5621462644177693e+00 0 0 0
265 1 3.0797354584125025e+00 3.2997883878970805e-02 1.7995707850132829e+00 0 0 0
266 1 3.9295505256336520e+00 8.2390089801079358e-01 1.7716302003976849e+00 0 0 0
267 1 3.8224905555898476e+00 1.8553655116022888e-02 2.4920708972930714e+00 0 0 0
268 1 3.2047006477179063e+00 8.2429812305143368e-01 2.5216656146298067e+00 0 0 0
269 1 4.6660881143554427e+00 9.9187316280763382e-02 1.6054673273850526e+00 0 0 0
270 1 5.5708680168741553e+00 9.0623431976827418e-01 1.7507815052688995e+00 0 0 0
271 1 5.5651896600943571e+00 1.3762183492013566e-01 2.4521056171067603e+00 0 0 0
272 1 4.6019843605390145e+00 7.6308154609362677e-01 2.5157401530204888e+00 0 0 0
273 1 6.3479954333482400e+00 1.2630270650350509e-01 1.7543282461306815e+00 0 0 0
274 1 7.3564328468119644e+00 6.9269466543403846e-01 1.8472222870814365e+00 0 0 0
275 1 7.3007298941491694e+00 3.9724158492660500e-01 2.9595103696264466e+00 0 0 0
276 1 6.4792533887069732e+00 7.5769923184001631e-01 2.6142746622559381e+00 0 0 0
277 1 8.0415435272923332e+00 -7.6742472786841445e-02 1.5815622501762139e+00 0 0 0
278 1 8.8982751802076727e+00 7.3370055070329643e-01 1.5716534289526853e+00 0 0 0
279 1 9.0532166774974350e+00 1.2052613375435030e+01 3.1506673801191707e+00 0 -1 0
280 1 8.4004932504124241e+00 5.2449815528379484e-01 2.3547738636977966e+00 0 0 0
281 1 1.0070610303475117e+01 1.1610582795541646e+01 1.7154544791140971e+00 0 -1 0
282 1 1.0592787784378373e+01 1.0965950715171831e+01 2.2634818989584593e+00 0 -1 0
283 1 9.7664774749960408e+00 1.3339441199831290e-01 2.4894472835075625e+00 0 0 0
284 1 9.4115478454156083e+00 1.2353194836753357e+01 4.0445738796515061e+00 0 -1 0
285 1 1.6286053629756147e+01 1.0352660737890234e+01 1.0047402485822456e+01 0 -1 -2
286 1 3.4184978338067523e+01 1.1097996542509781e+01 1.1158389441957425e+01 0 0 0
287 1 1.5290075901885007e+01 9.6243201572583015e+00 5.5144148455671775e+00 0 -1 0
288 1 3.2524094402956017e+01 1.1971066932161161e+01 1.1854541010103109e+01 0 0 0
289 1 3.7316749174148249e+01 1.5916388301319477e+00 1.6850217919722135e+00 -1 0 0
290 1 7.2682653048831602e-01 2.4605723724696209e+00 1.7101272635133744e+00 0 0 0
291 1 8.0111593255056956e-01 1.5559209052668390e+00 2.5415706903189781e+00 0 0 0
292 1 -1.7316165355262897e-02 2.3546662786133816e+00 2.3461457879107672e+00 0 0 0
293 1 1.5371878444621767e+00 1.5639853989830401e+00 1.7786114146103176e+00 0 0 0
294 1 2.3257596486644672e+00 2.3745190888030332e+00 1.6847580033955305e+00 0 0 0
295 1 2.1927107969051693e+00 1.6156445006412528e+00 2.4628944445584384e+00 0 0 0
296 1 1.4740122569405367e+00 2.4023675165856098e+00 2.4646238248250074e+00 0 0 0
297 1 3.1747338767115814e+00 1.6120297018901935e+00 1.7279910551850246e+00 0 0 0
298 1 3.9274461343996103e+00 2.3446431298413670e+00 1.7282368566708655e+00 0 0 0
299 1 3.8970047807526393e+00 1.6348297609229763e+00 2.4816744148690497e+00 0 0 0
300 1 3.1383568639431809e+00 2.4022855565910279e+00 2.5458801757640739e+00 0 0 0
301 1 4.7228554700023420e+00 1.4535744509677988e+00 1.7381117054809727e+00 0 0 0
302 1 5.4257669976132670e+00 2.3930027248477983e+00 1.7671979330084298e+00 0 0 0
303 1 5.4743259210925226e+00 1.6863872388553403e+00 2.6355694190052028e+00 0 0 0
304 1 4.6593782474227670e+00 2.3544676677715382e+00 2.5628597485164368e+00 0 0 0
305 1 6.1981904899622089e+00 1.6637539490777629e+00 1.8426084017533926e+00 0 0 0
306 1 7.2294378060835038e+00 2.4535946143156471e+00 1.9275772679635121e+00 0 0 0
307 1 7.0556324969282347e+00 1.5854418093202853e+00 2.5790301904026482e+00 0 0 0
308 1 6.3713656714753499e+00 2.4406352598985781e+00 2.6059818834278028e+00 0 0 0
309 1 8.0428217943191278e+00 1.5937474828505414e+00 1.9466691908809626e+00 0 0 0
310 1 8.9429301173463536e+00 2.4746559386257148e+00 1.9638170707352991e+00 0 0 0
311 1 8.9585615720670297e+00 1.4484089730056837e+00 2.5977382324082066e+00 0 0 0
312 1 8.2642746049020914e+00 2.2569321506361519e+00 2.7513427788584139e+00 0 0 0
313 1 9.5507396964433191e+00 3.0168767052670145e+00 3.5338396203584765e+00 0 0 0
314 1 1.5323398717793545e+01 3.3611705056278947e+00 6.7676433921048389e+00 0 -1 -1
315 1 1.1766021444132161e+01 1.2275868719040275e+01 1.0356682576761546e+01 0 -1 -1
316 1 1.5550584184994367e+01 4.2535018132593843e+00 7.1960862334414566e+00 0 0 -1
317 1 1.6018778469921507e+01 3.0460197883966922e+00 7.3498744393300386e-01 0 0 0
318 1 1.3782027192997070e+01 6.3227393083101617e+00 5.2368881036155797e+00 0 0 -1
319 1 1.6391618564364801e+01 6.0021510290180835e+00 1.1827039741838558e+01 0 0 -2
320 1 1.5231458591045801e+01 2.6046083442748275e-01 2.6624916931589793e+00 0 0 0
321 1 7.1993318003798545e-02 3.1941444882650245e+00 1.6585908066630271e+00 0 0 0
322 1 8.2641368607340659e-01 3.9766079006315751e+00 1.8003421858201210e+00 0 0 0
323 1 6.7323709810370813e-01 3.1594736601599194e+00 2.5075976015702297e+00 0 0 0
324 1 3.7377668920598907e+01 4.0437418908589660e+00 2.5655794362729325e+00 -1 0 0
325 1 1.4759652515544532e+00 3.2625203457070651e+00 1.7871119906852644e+00 0 0 0
326 1 2.3580628868318017e+00 3.8873980567345705e+00 1.8381830962363970e+00 0 0 0
327 1 2.3349031677623291e+00 3.2655904052929228e+00 2.5728713338847751e+00 0 0 0
328 1 1.5291290819659353e+00 3.9195882516913132e+00 2.6309503645949150e+00 0 0 0
329 1 3.1717150409653692e+00 3.0305825349458058e+00 1.7462174478317380e+00 0 0 0
330 1 4.0063505613669959e+00 3.9651987819641477e+00 1.8019452057723997e+00 0 0 0
331 1 3.8718390026114595e+00 3.1974656055938331e+00 2.5462423641844456e+00 0 0 0
332 1 3.1708856360956852e+00 3.8546779703968181e+00 2.4536673273040446e+00 0 0 0
333 1 4.7874448773367622e+00 3.2330707879844431e+00 1.7314823900713372e+00 0 0 0
334 1 5.7257503757103665e+00 3.8850801621051527e+00 1.9351758363858353e+00 0 0 0
335 1 5.5460128840785705e+00 3.1056268313538760e+00 2.5873082203902422e+00 0 0 0
336 1 4.7792466476082369e+00 4.0192681923009150e+00 2.5090707641930177e+00 0 0 0
337 1 6.3958891362653381e+00 3.1995798739723051e+00 1.8388083555225554e+00 0 0 0
338 1 7.2269253062294538e+00 3.8676488291635640e+00 1.7780535500674697e+00 0 0 0
339 1 7.3824166628649648e+00 3.0975629016901007e+00 2.6973794472542947e+00 0 0 0
340 1 6.6810710953922703e+00 3.7620437970272560e+00 2.6403204669009659e+00 0 0 0
341 1 8.1295069875598251e+00 3.0519280845302568e+00 2.0341252655246738e+00 0 0 0
342 1 8.8909814071105622e+00 3.9019420462878811e+00 1.8841057824776022e+00 0 0 0
343 1 8.9127400974951634e+00 3.1485032254400775e+00 2.7941583595233284e+00 0 0 0
344 1 8.0218497021080637e+00 3.9648692516348341e+00 2.6859933684393313e+00 0 0 0
345 1 9.5284803195861514e+00 3.1494236085498355e+00 2.0994022420540331e-01 0 0 0
346 1 2.3425151480598888e+01 1.0368832501125461e+01 1.0187646154011158e+01 0 0 0
347 1 1.2646516008233096e+01 1.6481436487491263e+00 9.1365321832123350e+00 0 0 0
348 1 1.4193937193540343e+01 9.8477735161780799e+00 1.0200533466209144e+01 0 0 0
349 1 1.5353958732656494e+01 4.5119081849928957e+00 8.6550938615909416e+00 0 0 -1
350 1 1.0427508978283527e+01 9.8246660469631077e+00 5.5941604490089620e+00 0 -1 0
351 1 2.0210304876333669e+01 2.1326241971136772e+00 1.2035520869210323e+01 0 0 -1
352 1 1.5415387683207094e+01 9.6764868150321828e+00 6.6326252047546568e+00 0 -1 -1
353 1 -4.3550763392712528e-02 4.8592721571838213e+00 1.8813568889323482e+00 0 0 0
354 1 6.9050084336240780e-01 5.6270895754402392e+00 1.7678210367574549e+00 0 0 0
355 1 7.5784836565453817e-01 4.7052482396879567e+00 2.4860800980722404e+00 0 0 0
356 1 3.7372515372837043e+01 5.5646214450355398e+00 2.6427520808830560e+00 -1 0 0
357 1 1.4568031121137166e+00 4.7713584454737639e+00 1.7135054467436182e+00 0 0 0
358 1 2.3974482188631816e+00 5.6357170041917408e+00 1.7815764683699000e+00 0 0 0
359 1 2.3193811202949681e+00 4.8786472907770317e+00 2.4170492704965798e+00 0 0 0
360 1 1.4954469710785447e+00 5.4448687717013975e+00 2.4231410006972043e+00 0 0 0
361 1 3.1223167076272831e+00 4.7352592130513385e+00 1.8375268209251112e+00 0 0 0
362 1 3.9450565148927410e+00 5.5477997132464276e+00 1.7052379612495032e+00 0 0 0
363 1 3.9468940495359783e+00 4.6475363328883290e+00 2.6480844851276397e+00 0 0 0
364 1 3.1151371686034888e+00 5.5485738742973822e+00 2.4680164770865538e+00 0 0 0
365 1 4.7140050629524062e+00 4.8336492218628155e+00 1.7546633132482023e+00 0 0 0
366 1 5.6409562802664102e+00 5.6084507248874278e+00 1.8672200445670755e+00 0 0 0