LAMMPS data file via write_data, version 31 Mar 2017, timestep = 800000

2048 atoms
1 atom types

-1.0344501870615108e-01 1.2405540375962119e+01 xlo xhi
-8.4690207169339615e-02 1.2386785564425390e+01 ylo yhi
-9.7383260936196869e-02 1.2399478618195594e+01 zlo zhi
2.7055299763014240e-02 -2.7481208843894399e-02 -1.4409077533589271e-02 xy xz yz

Masses

1 1

Atoms # atomic

1 1 5.8908648129599034e-03 1.2276397980365479e+01 -6.9815096483102412e-02 0 -1 0
2 1 7.3925266800529310e-01 5.7327112627372978e-01 -4.5639312266438886e-02 0 0 0
3 1 6.7088661726927123e-01 1.2214673142466211e+01 7.7590880637580972e-01 0 -1 0
4 1 -5.1733502353013147e-02 5.9835610883323309e-01 6.5654620606065495e-01 0 0 0
5 1 1.5061417589423660e+00 1.2340851381631353e+01 -3.3278637141646056e-02 0 -1 0
6 1 2.1942068480528842e+00 6.9879099543290057e-01 2.3535460553735857e-02 0 0 0
7 1 2.2810505840991877e+00 1.2282994488906503e+01 6.9006880278016558e-01 0 -1 0
8 1 1.3761750389549632e+00 6.6680107726740601e-01 7.0701770678633069e-01 0 0 0
9 1 2.9773756678552945e+00 1.2217123261951686e+01 1.2376199308165734e+01 0 -1 -1
10 1 3.8740765870601135e+00 6.5707649882901120e-01 -1.3986353743479701e-02 0 0 0
11 1 3.8320362397852534e+00 1.2337409568116895e+01 7.0561399035171379e-01 0 -1 0
12 1 2.9116532088391640e+00 5.8198563653682045e-01 7.8226163674404214e-01 0 0 0
13 1 4.5100364101582215e+00 -5.8892357337049950e-02 -2.8988294156625807e-02 0 0 0
14 1 5.2276005043401996e+00 7.2133549164297917e-01 -4.8425189468458280e-03 0 0 0
15 1 5.3777476352148934e+00 1.2335926958336563e+01 8.1528561608856820e-01 0 -1 0
16 1 4.4908101818212547e+00 7.2290581086802841e-01 8.6702734323893704e-01 0 0 0
17 1 6.0883542177404157e+00 1.2363730097678895e+01 5.0980782271045633e-05 0 -1 0
18 1 6.8308831818485221e+00 6.1518256386130921e-01 1.2772418057296828e-02 0 0 0
19 1 6.8484758609455607e+00 -6.8373148024587715e-02 8.7165951689098897e-01 0 0 0
20 1 5.9777936085034611e+00 6.0745222916953157e-01 7.2260750200359070e-01 0 0 0
21 1 7.7069969920506880e+00 1.2366210162018014e+01 -1.2492394620243805e-02 0 -1 0
22 1 8.4349484351640349e+00 6.3599848418623872e-01 -9.3061399279300905e-02 0 0 0
23 1 8.5783400135837340e+00 1.2279426435095528e+01 7.0003317253319319e-01 0 -1 0
24 1 7.6828391039338930e+00 6.1864519565729947e-01 6.9951944457339699e-01 0 0 0
25 1 9.2957686208161903e+00 1.2284682699304305e+01 -9.4120945380043008e-02 0 -1 0
26 1 1.0172113211349398e+01 5.7460600143197005e-01 -8.1540675732986581e-02 0 0 0
27 1 1.0026812090461572e+01 -7.6667320282393828e-02 6.5710496346691694e-01 0 0 0
28 1 9.2330410096500763e+00 6.1295287747619187e-01 7.2211791739782671e-01 0 0 0
29 1 1.0840319553762605e+01 1.2346765484183676e+01 1.2384227910866265e+01 0 -1 -1
30 1 1.1587396507492947e+01 7.2059831755464110e-01 1.2395698771050274e+01 0 0 -1
31 1 1.1676318463474367e+01 1.2365506513669377e+01 7.7669727069627426e-01 0 -1 0
32 1 1.0821851288638882e+01 5.7751056439795245e-01 7.8317707144206350e-01 0 0 0
33 1 -7.9557520019239436e-02 1.4588877565570915e+00 -7.5943942487637944e-02 0 0 0
34 1 7.6184683732026470e-01 2.3433072422388159e+00 7.6121362706855572e-02 0 0 0
35 1 6.1292937950909143e-01 1.5415937851096757e+00 6.7321323537632360e-01 0 0 0
36 1 1.2300305436853758e+01 2.3375126014254701e+00 7.2268364220677894e-01 -1 0 0
37 1 1.4141361468208178e+00 1.4405657085438550e+00 -8.9133977690887461e-02 0 0 0
38 1 2.1805487661996166e+00 2.3364708232598410e+00 -5.5739585649081672e-02 0 0 0
39 1 2.1893228261705198e+00 1.4675914449915017e+00 6.5428249768778968e-01 0 0 0
40 1 1.4487337596351744e+00 2.2787112381865318e+00 8.2125799335438010e-01 0 0 0
41 1 3.1026435932183198e+00 1.5398390238513984e+00 1.3721064664760071e-02 0 0 0
42 1 3.8211479295984558e+00 2.1682514118490794e+00 1.2393317623294376e+01 0 0 -1
43 1 3.7278625281263711e+00 1.4185214716369541e+00 7.0826711839439771e-01 0 0 0
44 1 3.0318610535645951e+00 2.3638993468781138e+00 6.1811898867032544e-01 0 0 0
45 1 4.6077684101344554e+00 1.4425582453519719e+00 1.2042977494379672e-02 0 0 0
46 1 5.4404201859123953e+00 2.2169946393434783e+00 1.2377651288509423e+01 0 0 -1
47 1 5.3653883597667296e+00 1.4931386020763895e+00 7.4297262670787523e-01 0 0 0
48 1 4.7352134890657585e+00 2.3507836415096075e+00 6.3202228494167367e-01 0 0 0
49 1 6.2112471673580787e+00 1.3796144806300623e+00 -4.4300484563364738e-02 0 0 0
50 1 6.9632845002043968e+00 2.1546300018577114e+00 1.2367268352276604e+01 0 0 -1
51 1 6.9489430495843187e+00 1.4450664171733714e+00 7.8013099575623235e-01 0 0 0
52 1 6.2318218230414448e+00 2.1987492128521202e+00 6.1848003505015958e-01 0 0 0
53 1 7.6932182063202692e+00 1.3969666231739082e+00 1.2337218450982128e+01 0 0 -1
54 1 8.4554895009031128e+00 2.2695930754521840e+00 -8.9922394713582848e-02 0 0 0
55 1 8.5850731445238964e+00 1.4279642283232141e+00 6.3914582685869414e-01 0 0 0
56 1 7.6712678308487101e+00 2.1705505871955264e+00 6.5289341287899205e-01 0 0 0
57 1 9.3838586988809034e+00 1.3238793153186168e+00 -5.8033816837977766e-02 0 0 0
58 1 1.0000370820379576e+01 2.2407608965757846e+00 -3.7039443545876939e-02 0 0 0
59 1 1.0116528063358739e+01 1.3172723439487890e+00 6.7543407121932963e-01 0 0 0
60 1 9.2973973339138887e+00 2.2308945306355472e+00 7.5341854214449011e-01 0 0 0
61 1 1.0944462013085204e+01 1.4447046007453055e+00 1.2337497699187228e+01 0 0 -1
62 1 1.1577224484167079e+01 2.2375667802215231e+00 -6.0385147488185402e-02 0 0 0
63 1 1.1549560632692156e+01 1.4201469662072483e+00 7.5551740184323724e-01 0 0 0
64 1 1.0894284511118052e+01 2.1040896051477049e+00 6.9928259128218906e-01 0 0 0
65 1 1.2406331828289080e+01 3.1439644122140193e+00 1.1920841129513751e-01 -1 0 0
66 1 6.3087981445331176e-01 3.9156066164406873e+00 -1.3931143239723123e-02 0 0 0
67 1 6.2266386153515463e-01 3.0979969515029491e+00 7.7511082665996089e-01 0 0 0
68 1 1.2367165266725682e+01 3.9232955828895886e+00 7.2012735853667054e-01 -1 0 0
69 1 1.3973913952114170e+00 3.0067299182971201e+00 -5.6286396605092333e-02 0 0 0
70 1 2.2591896758885595e+00 3.8493119160732348e+00 -4.9098726646378495e-02 0 0 0
71 1 2.2903085441051139e+00 2.9951617297159561e+00 6.5873448445252125e-01 0 0 0
72 1 1.4627067470399815e+00 3.8202965079907436e+00 6.2728295525893896e-01 0 0 0
73 1 2.9182337699911218e+00 3.0340721898497081e+00 1.2371835176404087e+01 0 0 -1
74 1 3.8580891652166542e+00 3.7617196111994868e+00 1.2388651523015309e+01 0 0 -1
75 1 3.8388075615076067e+00 3.0867954323967091e+00 6.0061353807634277e-01 0 0 0
76 1 3.1250342627657246e+00 3.8119137679730630e+00 6.4261581535091339e-01 0 0 0
77 1 4.6848257714516617e+00 3.0151307203358573e+00 1.2285994455319351e+01 0 0 -1
78 1 5.3987908586141780e+00 3.7679943710584736e+00 1.2304583489407317e+01 0 0 -1
79 1 5.5495964714828565e+00 2.9991154928809052e+00 7.0271580268062073e-01 0 0 0
80 1 4.6724847536008838e+00 3.7392775903322577e+00 6.6186817768077899e-01 0 0 0
81 1 6.1898846686235647e+00 2.9633135157470010e+00 1.2357177049428635e+01 0 0 -1
82 1 7.0040196737887319e+00 3.8001328605034979e+00 1.2388617096503111e+01 0 0 -1
83 1 6.8414569778748175e+00 3.0172261177858433e+00 6.1495242894197288e-01 0 0 0
84 1 6.1779909283499741e+00 3.8103285926617536e+00 5.0085132175415703e-01 0 0 0
85 1 7.7371778306519605e+00 3.0316079747231819e+00 -4.5901484087460295e-02 0 0 0
86 1 8.4590642942514407e+00 3.7520385221125658e+00 -9.3391718839546806e-02 0 0 0
87 1 8.5260334972990925e+00 2.9369833231654474e+00 6.7547047984068509e-01 0 0 0
88 1 7.7354936173019659e+00 3.7285717813252681e+00 6.7226676776016647e-01 0 0 0
89 1 9.2761035789202140e+00 3.0541687413226852e+00 -8.1904869394428023e-02 0 0 0
90 1 1.0000915644077047e+01 3.7611214176412799e+00 3.2049258960569954e-02 0 0 0
91 1 1.0233487480384891e+01 3.0355298179312058e+00 6.3469489065323537e-01 0 0 0
92 1 9.3142214273979640e+00 3.7464260109508478e+00 7.2608241484302416e-01 0 0 0
93 1 1.0895866903899911e+01 3.1001554374982012e+00 1.2394699668496862e+01 0 0 -1
94 1 1.1568117481116808e+01 3.8562501413188270e+00 1.2370460690070846e+01 0 0 -1
95 1 1.1646383591328622e+01 3.0240997162509289e+00 7.2818886290364593e-01 0 0 0
96 1 1.0956266502456810e+01 3.8578617281258665e+00 7.5430721916192911e-01 0 0 0
97 1 1.2368848445591610e+01 4.7152714700786982e+00 -6.7481764792134649e-02 -1 0 0
98 1 6.1416953549986109e-01 5.3871006373690467e+00 -7.5499219106615362e-02 0 0 0
99 1 6.5359439912852402e-01 4.6823417909886897e+00 7.1126939822417767e-01 0 0 0
100 1 -1.3718128139013491e-03 5.4449299612644513e+00 6.9529202450789607e-01 0 0 0
101 1 1.4245598817380178e+00 4.6518861969601675e+00 -1.3647510190109222e-02 0 0 0
102 1 2.2877374013963321e+00 5.2964782789969727e+00 1.2323652072816223e+01 0 0 -1
103 1 2.3620250189035956e+00 4.5407897788527229e+00 6.6581597952445259e-01 0 0 0
104 1 1.5050973087057629e+00 5.4630367754132694e+00 6.5446749025214701e-01 0 0 0
105 1 3.0337153521232918e+00 4.5027874977300062e+00 -5.2915969668291152e-02 0 0 0
106 1 3.8015597845125551e+00 5.3070903273504264e+00 1.2385013301653633e+01 0 0 -1
107 1 3.9021192920667165e+00 4.4985411599536658e+00 6.1027231558127826e-01 0 0 0
108 1 3.1787142644605439e+00 5.2573019528998755e+00 5.9676940573321424e-01 0 0 0
109 1 4.7259985225245318e+00 4.6201016011742917e+00 1.2335902244875712e+01 0 0 -1
110 1 5.3586474438136351e+00 5.5069287369987325e+00 1.2378973575154376e+01 0 0 -1
111 1 5.4513016790099700e+00 4.5496253082680340e+00 6.0261344777879400e-01 0 0 0
112 1 4.5990034876621344e+00 5.3543619803120750e+00 6.3449581047506332e-01 0 0 0
113 1 6.1678348234597333e+00 4.5967187369810070e+00 1.2346953646594951e+01 0 0 -1
114 1 6.9109566291790383e+00 5.2844562825839265e+00 1.2314115602915990e+01 0 0 -1
115 1 6.8827186492388659e+00 4.5869980259210950e+00 5.5776750594599855e-01 0 0 0
116 1 6.0830352659772444e+00 5.3621658864951467e+00 6.9604500925136203e-01 0 0 0
117 1 7.7918052564707070e+00 4.5312561747474547e+00 -5.9141457980988021e-02 0 0 0
118 1 8.5009486716706455e+00 5.4402097884219964e+00 1.2383317557536465e+01 0 0 -1
119 1 8.4815897917147787e+00 4.6479450092853218e+00 7.5000849626762622e-01 0 0 0
120 1 7.6909120340106885e+00 5.3881469353234479e+00 5.6641105174405149e-01 0 0 0
121 1 9.2654657098092592e+00 4.5087485369711375e+00 -3.9678545975561336e-02 0 0 0
122 1 1.0032922921275507e+01 5.3707976009853846e+00 1.2379499195616273e+01 0 0 -1
123 1 1.0064141064555450e+01 4.5557041824921951e+00 7.1014378181674620e-01 0 0 0
124 1 9.3369738349283047e+00 5.3965418303056492e+00 6.9528642512173233e-01 0 0 0
125 1 1.0765611075394148e+01 4.6649138094522407e+00 1.0009444292855260e-02 0 0 0
126 1 1.1555816034438216e+01 5.3442773020905419e+00 1.2324240402958981e+01 0 0 -1
127 1 1.1619535253818288e+01 4.7167900301886228e+00 6.2975839858858818e-01 0 0 0
128 1 1.0936669334707929e+01 5.4032053640615718e+00 7.4125503256198999e-01 0 0 0
129 1 -3.4790336967852414e-02 6.0916542385469228e+00 1.2264489351573673e+01 0 0 -1
130 1 6.1476725151782219e-01 7.0020261471430540e+00 1.2282665070040366e+01 0 0 -1
131 1 8.2385463429631767e-01 6.2747486653580795e+00 5.9800542134673407e-01 0 0 0
132 1 1.2393962343441913e+01 6.9713165644372399e+00 5.1979979208065596e-01 -1 0 0
133 1 1.5985990157802101e+00 6.1530416923413940e+00 1.2320550488566816e+01 0 0 -1
134 1 2.2705550155667193e+00 6.9952491592248727e+00 -9.4406688173678269e-02 0 0 0
135 1 2.3260884340209764e+00 6.0983744578251109e+00 6.1994609615269103e-01 0 0 0
136 1 1.5817133039823652e+00 6.9590996706022521e+00 6.0000654685538668e-01 0 0 0
137 1 3.0185092860088316e+00 6.2661863348615192e+00 1.2314380130828617e+01 0 0 -1
138 1 3.8613323152477528e+00 6.8573564759734378e+00 1.2278291284990569e+01 0 0 -1
139 1 3.7848198572072804e+00 6.0907109761746261e+00 7.0240228490504109e-01 0 0 0
140 1 3.1662404366357295e+00 6.9600674673501484e+00 5.4920411348965781e-01 0 0 0
141 1 4.6402173887967502e+00 6.2489218039188765e+00 1.2294783954592027e+01 0 0 -1
142 1 5.3395770946060361e+00 6.9748862077954259e+00 -9.6313508949991467e-02 0 0 0
143 1 5.3298723079333143e+00 6.1850790353527003e+00 6.7632822387504976e-01 0 0 0
144 1 4.5257062531958674e+00 6.9324307851184601e+00 6.0534705307950865e-01 0 0 0
145 1 6.1599254716170853e+00 6.0866332475989671e+00 3.2145763676293487e-02 0 0 0
146 1 6.8271668984588940e+00 6.9588126701924189e+00 -4.9659766317254009e-02 0 0 0
147 1 6.8556328320057549e+00 6.2213012682950000e+00 7.3682485365063877e-01 0 0 0
148 1 6.1109241594241519e+00 6.9937551375685585e+00 7.1125496968731250e-01 0 0 0
149 1 7.6694183907406686e+00 6.1788153145555027e+00 -7.0046566103028743e-02 0 0 0
150 1 8.3645852158471108e+00 6.8077226159155053e+00 1.2344116360433883e+01 0 0 -1
151 1 8.4589992017185693e+00 6.0980784040042435e+00 7.1099913217014832e-01 0 0 0
152 1 7.5423209848454329e+00 6.9444793403026255e+00 6.4301603673446583e-01 0 0 0
153 1 9.3140006963287156e+00 6.1801074324325898e+00 1.2352613171099616e+01 0 0 -1
154 1 1.0062799113424745e+01 6.8791437416631878e+00 2.8126687488689295e-02 0 0 0
155 1 1.0035698280452792e+01 6.1750327185874561e+00 6.9558406297066311e-01 0 0 0
156 1 9.2199777946771668e+00 6.8556886023960297e+00 7.0224814455512830e-01 0 0 0
157 1 1.0847242966192553e+01 6.2261143279353703e+00 1.2352662266410139e+01 0 0 -1
158 1 1.1719282578278357e+01 6.8207107604510089e+00 1.2381370209517474e+01 0 0 -1
159 1 1.1616088065783838e+01 6.0919804280047076e+00 6.0570565966860024e-01 0 0 0
160 1 1.0950760398292697e+01 6.8879192399135682e+00 6.3255125175932381e-01 0 0 0
161 1 1.2263269302433830e+01 7.6148630127351051e+00 1.2237778409548412e+01 -1 0 -1
162 1 6.3088423756625289e-01 8.5046812216352592e+00 -5.1591063746358350e-02 0 0 0
163 1 7.3150628418272379e-01 7.7295744001798905e+00 6.7757264835033892e-01 0 0 0
164 1 -5.6173777316060755e-02 8.4480336338132620e+00 6.5770612027751085e-01 0 0 0
165 1 1.3868131167783591e+00 7.6814711085154066e+00 1.2339119924168834e+01 0 0 -1
166 1 2.0979839849340918e+00 8.5694709360426327e+00 1.2391841858776740e+01 0 0 -1
167 1 2.1782461603542163e+00 7.7752890737927816e+00 4.8571958643603463e-01 0 0 0
168 1 1.4047770152380679e+00 8.6211570237222830e+00 6.8328472985046662e-01 0 0 0
169 1 2.8893774514052706e+00 7.7676295825067543e+00 1.2333182254162747e+01 0 0 -1
170 1 3.7841521438895516e+00 8.5445616297371796e+00 -1.9601133221060024e-02 0 0 0
171 1 3.8453130867784324e+00 7.6680902600385519e+00 5.9434963215314940e-01 0 0 0
172 1 2.9548961184968210e+00 8.6177880732430499e+00 6.5222107916808092e-01 0 0 0
173 1 4.5971408717275368e+00 7.8398726741376041e+00 -7.2269893820290504e-02 0 0 0
174 1 5.4317507083260139e+00 8.5358709002235322e+00 -6.4163238357350716e-02 0 0 0
175 1 5.3775970919767175e+00 7.8364387812448379e+00 6.9980332689199365e-01 0 0 0
176 1 4.6440093501635529e+00 8.6353397549857647e+00 6.9203789157603746e-01 0 0 0
177 1 6.1623062633788397e+00 7.8048931068767695e+00 -6.6804375450663131e-02 0 0 0
178 1 6.8692414274129545e+00 8.6380117254986324e+00 -7.0123572123561864e-02 0 0 0
179 1 6.9598685835327334e+00 7.8717160209981660e+00 6.8705673833109926e-01 0 0 0
180 1 6.1273660255997244e+00 8.4520782718914411e+00 8.4642887788653376e-01 0 0 0
181 1 7.6682802332976427e+00 7.6273497560456684e+00 1.2356927273683329e+01 0 0 -1
182 1 8.5244722189192146e+00 8.4618927280513425e+00 1.2314342855108276e+01 0 0 -1
183 1 8.2731910127858512e+00 7.7357444157103163e+00 6.7328292408561552e-01 0 0 0
184 1 7.7688294976746581e+00 8.5378383948808398e+00 7.7557656271769870e-01 0 0 0
185 1 9.2269946709872563e+00 7.5041308525485606e+00 1.2372179288220874e+01 0 0 -1
186 1 9.9358803301926031e+00 8.4418397966412542e+00 1.2391837796817388e+01 0 0 -1
187 1 1.0090528108842804e+01 7.6835937011175908e+00 7.0735821154609146e-01 0 0 0
188 1 9.1517838972086487e+00 8.4444485240662548e+00 6.2148724356299445e-01 0 0 0
189 1 1.0751100729819296e+01 7.6752877619150164e+00 -4.7831724346698669e-02 0 0 0
190 1 1.1631855327982599e+01 8.5757529948650539e+00 1.2388030665357267e+01 0 0 -1
191 1 1.1745208795256552e+01 7.7765984107092336e+00 6.3315823858110620e-01 0 0 0
192 1 1.0859402226031477e+01 8.4681351725140956e+00 6.4623788661249337e-01 0 0 0
193 1 -9.0790776542172408e-02 9.2604316332810797e+00 1.2391311032929227e+01 0 0 -1
194 1 7.3078273642462965e-01 1.0060097927635137e+01 -8.4323934271392717e-02 0 0 0
195 1 6.4949061679273346e-01 9.3025232815155494e+00 7.0667948858709051e-01 0 0 0
196 1 1.2394456040838520e+01 1.0012068855174522e+01 6.1232069100490338e-01 -1 0 0
197 1 1.3197059188812617e+00 9.2587893738916005e+00 1.2392350196888962e+01 0 0 -1
198 1 2.1968729959478406e+00 1.0105867297837392e+01 -6.7255932826103815e-03 0 0 0
199 1 2.1871140896022130e+00 9.3197421518455918e+00 6.3675384007746272e-01 0 0 0
200 1 1.4464505264380720e+00 1.0004259990795312e+01 7.4869092376331581e-01 0 0 0
201 1 3.0559200874028205e+00 9.2838051788454639e+00 -4.6863013248731260e-02 0 0 0
202 1 3.8017414563693905e+00 1.0064073340700563e+01 1.2324940370168079e+01 0 0 -1
203 1 3.8394855083579689e+00 9.3495371360969930e+00 5.9116580178845479e-01 0 0 0
204 1 2.9843219883414482e+00 1.0003507478339072e+01 6.9002188936668285e-01 0 0 0
205 1 4.6404625542324913e+00 9.2586540568514302e+00 1.2387205244754519e+01 0 0 -1
206 1 5.3421818388298785e+00 1.0088279010888160e+01 -7.5152953988716367e-02 0 0 0
207 1 5.4737081524659716e+00 9.2380131068760853e+00 7.4703470983312548e-01 0 0 0
208 1 4.6552636604530626e+00 1.0014944437962413e+01 7.6688831864839191e-01 0 0 0
209 1 6.1105098968053220e+00 9.3571972903017961e+00 1.2346813792571385e+01 0 0 -1
210 1 6.9451907781413285e+00 1.0143598021894860e+01 5.9664347425170849e-02 0 0 0
211 1 6.8748885486746731e+00 9.2880503939786383e+00 7.1662815094348320e-01 0 0 0
212 1 6.1136087971528434e+00 1.0192857993505205e+01 8.5954333319280918e-01 0 0 0
213 1 7.7555456418828088e+00 9.2928079254464215e+00 -6.3664932376182731e-02 0 0 0
214 1 8.4532534165085167e+00 1.0100806456295302e+01 -3.6338488001150276e-02 0 0 0
215 1 8.4687078976842223e+00 9.2163873527548414e+00 6.5821547028392713e-01 0 0 0
216 1 7.6797799549249692e+00 1.0106576041422558e+01 6.8119434853023875e-01 0 0 0
217 1 9.2435701116010414e+00 9.2853666327605158e+00 1.7081863106400474e-02 0 0 0
218 1 1.0007406939567108e+01 9.9285669470345468e+00 1.2383599728847031e+01 0 0 -1
219 1 1.0108246178400588e+01 9.2016722169661147e+00 7.2036863218960867e-01 0 0 0
220 1 9.3138705048364905e+00 9.9995286453869525e+00 7.7152874669399152e-01 0 0 0
221 1 1.0834152301870624e+01 9.2795838263138375e+00 1.2380636341959939e+01 0 0 -1
222 1 1.1510570439468733e+01 1.0079659695016792e+01 7.6378421932024626e-02 0 0 0
223 1 1.1533688540494069e+01 9.2494980061871743e+00 7.2455436534114559e-01 0 0 0
224 1 1.0749630169319669e+01 1.0008539771311211e+01 6.3989161893602375e-01 0 0 0
225 1 1.2398676598854628e+01 1.0776146108888440e+01 -4.2408062781279489e-02 -1 0 0
226 1 7.0704058994683172e-01 1.1632519914944575e+01 1.2372906517971078e+01 0 0 -1
227 1 6.2770842744401001e-01 1.0828195052471592e+01 6.8283852053254068e-01 0 0 0
228 1 1.2346914327883820e+01 1.1620467060968974e+01 7.3193228302480073e-01 -1 0 0
229 1 1.4571627012574402e+00 1.0899808571707490e+01 -8.8530016378888812e-02 0 0 0
230 1 2.2162680050867700e+00 1.1531375255206171e+01 1.2306906519055108e+01 0 0 -1
231 1 2.2758060841906729e+00 1.0929064336817012e+01 6.9039060928433260e-01 0 0 0
232 1 1.4273620198224635e+00 1.1598052599560326e+01 6.7526747287638500e-01 0 0 0
233 1 3.0567289895816354e+00 1.0806429859450265e+01 1.2352575389996865e+01 0 0 -1
234 1 3.8065504969135078e+00 1.1623785798923835e+01 -6.1943124915991576e-02 0 0 0
235 1 3.8147798779195390e+00 1.0805112484800826e+01 6.6249691902760555e-01 0 0 0
236 1 3.0521346066914647e+00 1.1495880613739610e+01 6.8083408942683132e-01 0 0 0
237 1 4.5990969315816344e+00 1.0869111379386329e+01 -6.4393582206650590e-02 0 0 0
238 1 5.3317379753253169e+00 1.1599382692501552e+01 -7.3317743535997598e-03 0 0 0
239 1 5.2315296547038992e+00 1.0808356336207609e+01 7.6390383002764806e-01 0 0 0
240 1 4.6005847242002789e+00 1.1651252558566920e+01 7.6442120446650486e-01 0 0 0
241 1 6.0606129999813829e+00 1.0851898884476483e+01 -8.9296818119866950e-03 0 0 0
242 1 6.9382600198242397e+00 1.1638105235900213e+01 4.5059069820014119e-02 0 0 0
243 1 6.9226808726143378e+00 1.0874880859397040e+01 7.9141619922023010e-01 0 0 0
244 1 6.0131325291230242e+00 1.1602871014722236e+01 8.2465869615452025e-01 0 0 0
245 1 7.7458760227485888e+00 1.0796456478217562e+01 -4.3372949211140363e-02 0 0 0
246 1 8.4746965127436482e+00 1.1524073030553510e+01 1.2393790455101779e+01 0 0 -1
247 1 8.4211746283629161e+00 1.0829585654903100e+01 7.9058267642046332e-01 0 0 0
248 1 7.6811291886776942e+00 1.1506421914246602e+01 7.8465153381660135e-01 0 0 0
249 1 9.3585725234149280e+00 1.0723053120105382e+01 4.6158677730461145e-02 0 0 0
250 1 1.0102192736095414e+01 1.1614311381294764e+01 -9.3266900757608323e-02 0 0 0
251 1 1.0091226373484222e+01 1.0712352136808146e+01 6.8496595145029782e-01 0 0 0
252 1 9.3358247418520932e+00 1.1559766056562610e+01 6.6517949980647295e-01 0 0 0
253 1 1.0820997035074065e+01 1.0878238489983643e+01 1.8826239586275148e-02 0 0 0
254 1 1.1671983474516924e+01 1.1687810789583825e+01 -4.1417427849733623e-02 0 0 0
255 1 1.1611663592251574e+01 1.0813298220147667e+01 7.7222985385837284e-01 0 0 0
256 1 1.0861784653669631e+01 1.1629831744801201e+01 8.0150125627852609e-01 0 0 0
257 1 -8.9611482487559790e-02 -6.8782516659958770e-02 1.4116279559713523e+00 0 0 0
258 1 7.3478875134916921e-01 7.7999559456147671e-01 1.4578685419598083e+00 0 0 0
259 1 7.3161442037518010e-01 8.0657848418606570e-03 2.0985369697224128e+00 0 0 0
260 1 1.2311950293111941e+01 6.3022402768132346e-01 2.2195618270192652e+00 -1 0 0
261 1 1.5109852102275265e+00 1.2324187915147652e+01 1.4889775725964653e+00 0 -1 0
262 1 2.1896900669549426e+00 7.1605842937028097e-01 1.4646493146057975e+00 0 0 0
263 1 2.1790721180002506e+00 -4.4499088039271564e-02 2.3681043963300010e+00 0 0 0
264 1 1.4209595140884188e+00 7.4927910350127402e-01 2.2212202306744531e+00 0 0 0
265 1 2.9539047101596343e+00 1.2356427609429442e+01 1.4992104509057140e+00 0 -1 0
266 1 3.7104413205590792e+00 6.0858610730824703e-01 1.5226569397940917e+00 0 0 0
267 1 3.7721351432570636e+00 1.2347604177503470e+01 2.2444605911912929e+00 0 -1 0
268 1 2.9503197547846254e+00 7.0111654020046499e-01 2.1821071984813241e+00 0 0 0
269 1 4.5445357805825930e+00 -7.6598959822305718e-02 1.5611719201077592e+00 0 0 0
270 1 5.3718981778574948e+00 7.4807865867895773e-01 1.5637096011217571e+00 0 0 0
271 1 5.3668554929957208e+00 -7.3331771760686004e-04 2.2778596951427312e+00 0 0 0
272 1 4.5361899312574909e+00 6.1389877560987927e-01 2.3030797740238316e+00 0 0 0
273 1 6.0793562562617538e+00 2.4907333116641631e-02 1.5973425889809623e+00 0 0 0
274 1 7.0125499386589993e+00 7.1069258372041633e-01 1.6423855514779944e+00 0 0 0
275 1 6.9931417654598507e+00 1.2363941587300443e+01 2.3352938372481251e+00 0 -1 0
276 1 6.1402824145932371e+00 7.1660071543528514e-01 2.3234692424422989e+00 0 0 0
277 1 7.8300372513588670e+00 -3.5863734723506853e-02 1.5218598936609100e+00 0 0 0
278 1 8.6477085322388056e+00 5.5670359842863681e-01 1.5532375050132885e+00 0 0 0
279 1 8.5770921812115120e+00 1.2352601087687015e+01 2.3410764647869637e+00 0 -1 0
280 1 7.8925107437956434e+00 6.7829387969288235e-01 2.2974672257277939e+00 0 0 0
281 1 9.3765150850019552e+00 1.2339314021960281e+01 1.3513365860045108e+00 0 -1 0
282 1 9.9259661369183476e+00 6.3001408592625463e-01 1.5246886565091389e+00 0 0 0
283 1 1.0093856691300100e+01 1.2300887094333861e+01 2.2573941048573829e+00 0 -1 0
284 1 9.3133049431584531e+00 6.2060696749904987e-01 2.2996417959685820e+00 0 0 0
285 1 1.0913669836304909e+01 1.2351237680141899e+01 1.5173280365591009e+00 0 -1 0
286 1 1.1613657302288527e+01 6.6905560430598310e-01 1.5232928876442016e+00 0 0 0
287 1 1.1673431175754299e+01 -8.2991893454110524e-02 2.3179617366733347e+00 0 0 0
288 1 1.0843645720233390e+01 6.8273490345373389e-01 2.1765667364490393e+00 0 0 0
289 1 1.2384492352376036e+01 1.3889870645273830e+00 1.4606052200520345e+00 -1 0 0
290 1 6.0697676417185176e-01 2.1688663749165862e+00 1.4436354761478891e+00 0 0 0
291 1 8.2498354498659621e-01 1.4643886043098704e+00 2.2219433179595574e+00 0 0 0
292 1 -6.4766221295746579e-02 2.3070230574085397e+00 2.2232764973686865e+00 0 0 0
293 1 1.5540544019771028e+00 1.5159982571857527e+00 1.4554201035459857e+00 0 0 0
294 1 2.3401147817472903e+00 2.3095549520071517e+00 1.4546747947898480e+00 0 0 0
295 1 2.2608083174599343e+00 1.5067455817617144e+00 2.2300069215759999e+00 0 0 0
296 1 1.5652592426517857e+00 2.4269445402558092e+00 2.1910454668439172e+00 0 0 0
297 1 3.0821654258726223e+00 1.5759673178157538e+00 1.3615513014357477e+00 0 0 0
298 1 3.8073969047195373e+00 2.2693699567520644e+00 1.2537811660358456e+00 0 0 0
299 1 3.9373209309464992e+00 1.4155137733004466e+00 2.2244647580984651e+00 0 0 0
300 1 3.0392274562728043e+00 2.2763768908764108e+00 2.1577297778392452e+00 0 0 0
301 1 4.6254417421696914e+00 1.5484071966045845e+00 1.4376815183285219e+00 0 0 0
302 1 5.5278014615800206e+00 2.2215964097073524e+00 1.4282277084101738e+00 0 0 0
303 1 5.3408208524049137e+00 1.5891394895074200e+00 2.2656388136190655e+00 0 0 0
304 1 4.6176411211792878e+00 2.3680061421705361e+00 2.1659236353482543e+00 0 0 0
305 1 6.2390157402791875e+00 1.3032492682546521e+00 1.4602728887942102e+00 0 0 0
306 1 7.0130794381377406e+00 2.3022596506154804e+00 1.3881428818002961e+00 0 0 0
307 1 7.0536858909335773e+00 1.4861459258700027e+00 2.1986426954782505e+00 0 0 0
308 1 6.1438250326952906e+00 2.2785594736706298e+00 2.3475589358876672e+00 0 0 0
309 1 7.8368827887257746e+00 1.3693267775581837e+00 1.5288670545112066e+00 0 0 0
310 1 8.3083672255849699e+00 2.2631245867710827e+00 1.3988067486738560e+00 0 0 0
311 1 8.6421982003597009e+00 1.5863498269758336e+00 2.2089441281850006e+00 0 0 0
312 1 7.7503764371030366e+00 2.2852979028989213e+00 2.2501344682246480e+00 0 0 0
313 1 9.3379391751902645e+00 1.4754488176883447e+00 1.3924200759140382e+00 0 0 0
314 1 1.0127917084963563e+01 2.1682362850548942e+00 1.4213159598853946e+00 0 0 0
315 1 1.0085966693485627e+01 1.4060322861857739e+00 2.2457014714522416e+00 0 0 0
316 1 9.4908754186498676e+00 2.1846678462756164e+00 2.2427785303669161e+00 0 0 0
317 1 1.0859287747786933e+01 1.4672754559352710e+00 1.5412238903068922e+00 0 0 0
318 1 1.1633498342183810e+01 2.2785390326632844e+00 1.4268580640780621e+00 0 0 0
319 1 1.1666019570354848e+01 1.4562301360436292e+00 2.1984682255376859e+00 0 0 0
320 1 1.0908452957194399e+01 2.2368356204003432e+00 2.1223951335529887e+00 0 0 0
321 1 1.2401407881491913e+01 3.0299677737855633e+00 1.5477029413668495e+00 -1 0 0
322 1 5.3839086268936254e-01 3.8653777925976587e+00 1.4945565664798748e+00 0 0 0
323 1 7.6723933954818346e-01 3.1388099982280839e+00 2.2723836587103330e+00 0 0 0
324 1 6.6254000798821044e-06 3.8889838214167147e+00 2.3369426973477392e+00 0 0 0
325 1 1.5378886494514621e+00 3.1723377779578428e+00 1.5124614977900412e+00 0 0 0
326 1 2.3754130623861722e+00 3.7847601892539338e+00 1.3693161330956054e+00 0 0 0
327 1 2.3620281580117628e+00 3.1251315333320413e+00 2.1445300670998764e+00 0 0 0
328 1 1.4907204063867250e+00 3.8137951804738432e+00 2.2508624341947745e+00 0 0 0
329 1 3.1463346307450664e+00 3.0163859685624561e+00 1.4277400820588164e+00 0 0 0
330 1 3.8634206684732186e+00 3.8687080187228480e+00 1.4546432959707367e+00 0 0 0
331 1 3.8794882155976445e+00 3.0413553546005736e+00 2.2600517372419171e+00 0 0 0
332 1 3.1303244986973975e+00 3.9325249248701537e+00 2.1510138852326857e+00 0 0 0
333 1 4.5983553716339545e+00 2.9271908760519394e+00 1.3864062473264622e+00 0 0 0
334 1 5.3568111972453458e+00 3.7206743060588559e+00 1.4043629327796234e+00 0 0 0
335 1 5.3806802178267343e+00 2.9764607859548304e+00 2.2231700842906057e+00 0 0 0
336 1 4.6775682141272368e+00 3.8313956708128383e+00 2.2268569659327984e+00 0 0 0
337 1 6.2134377612839184e+00 3.1409899704812809e+00 1.4177469711858561e+00 0 0 0
338 1 7.0255936062542022e+00 3.9454363923197997e+00 1.3622669599452539e+00 0 0 0
339 1 6.8929430741294517e+00 3.0031909148011691e+00 2.1208870961614976e+00 0 0 0
340 1 6.0935406726684516e+00 3.8102660446334231e+00 2.2104155254895010e+00 0 0 0
341 1 7.7807130381686642e+00 3.0781913249776678e+00 1.4867728180938815e+00 0 0 0
342 1 8.4170390269810262e+00 3.8694650549073870e+00 1.5146163545697515e+00 0 0 0
343 1 8.5513611363662605e+00 3.1486507854239263e+00 2.1924798483436216e+00 0 0 0
344 1 7.6262125892740080e+00 3.6422061362167120e+00 2.1920966290240482e+00 0 0 0
345 1 9.3541215639933633e+00 3.0072500065626500e+00 1.5267310994511485e+00 0 0 0
346 1 1.0063320368684511e+01 3.8600501072024183e+00 1.5374946783780767e+00 0 0 0
347 1 1.0174432539019367e+01 2.9546521066455118e+00 2.2117803393113453e+00 0 0 0
348 1 9.4018190003670732e+00 3.7841293216883991e+00 2.2372577091167503e+00 0 0 0
349 1 1.0893905538974391e+01 3.0163898953777122e+00 1.4426996150284315e+00 0 0 0
350 1 1.1709455192996817e+01 3.8392657559395649e+00 1.4921242929671206e+00 0 0 0
351 1 1.1683927467674202e+01 3.0449962517700371e+00 2.3985954701834542e+00 0 0 0
352 1 1.0872688064587585e+01 3.7850791564174968e+00 2.2297196627222964e+00 0 0 0
353 1 1.2379269455627401e+01 4.6387716063448456e+00 1.4342733588229419e+00 -1 0 0
354 1 6.4217811060931240e-01 5.5144042578958672e+00 1.4070908417249484e+00 0 0 0
355 1 7.0780381726233044e-01 4.6687361619218004e+00 2.0983514177606630e+00 0 0 0
356 1 -1.5000847688217134e-02 5.4087668086913467e+00 2.2177149820996109e+00 0 0 0
357 1 1.5682951154160338e+00 4.5560386478582702e+00 1.4190899438681641e+00 0 0 0
358 1 2.3041407342143811e+00 5.4406240726971706e+00 1.3924651412142222e+00 0 0 0
359 1 2.3032132215849339e+00 4.6163530999699001e+00 2.1672261978386338e+00 0 0 0
360 1 1.4201340635918709e+00 5.3907500882318224e+00 2.0302932754796799e+00 0 0 0
361 1 3.1443096395986170e+00 4.7424820598902837e+00 1.4271198494768631e+00 0 0 0
362 1 3.9108765545608026e+00 5.4802691960724461e+00 1.4737359233188185e+00 0 0 0
363 1 3.8952438626580848e+00 4.6541502463996478e+00 2.2714362329394047e+00 0 0 0
364 1 3.0199449789706363e+00 5.3076047359371374e+00 2.3406802796248445e+00 0 0 0
365 1 4.7827412130530318e+00 4.5765153756839165e+00 1.3190222743568323e+00 0 0 0