LAMMPS data file via write_data, version 7 Aug 2019, timestep = 2000

5576 atoms
1 atom types

-1.0344501870615108e-01 3.7423511165298649e+01 xlo xhi
-8.4690207169339615e-02 1.2386785564425390e+01 ylo yhi
-9.7383260936196869e-02 1.2399478618195594e+01 zlo zhi
2.7055299763014240e-02 -2.7481208843894399e-02 -1.4409077533589271e-02 xy xz yz

Masses

1 1

Atoms # atomic

1 1 -8.6981721775313339e-02 -8.0652975393811902e-02 -8.8860766657033435e-02 0 0 0
2 1 5.6854839866939322e-01 7.4259840222545115e-01 -4.5905412067182468e-02 0 0 0
3 1 6.7200039818386192e-01 -5.9769935962107862e-02 7.2377431531211711e-01 0 0 0
4 1 3.7328808067952735e+01 7.2567395436074977e-01 7.3853954824821266e-01 -1 0 0
5 1 1.3541039320454129e+00 -5.6282297261348410e-02 -9.1561674329088072e-02 0 0 0
6 1 2.4352787884364493e+00 6.9311226939383186e-01 1.2378483611272927e+01 0 0 -1
7 1 2.3374293445985672e+00 -1.6342503465855876e-02 6.3256036906694546e-01 0 0 0
8 1 1.5581163813277163e+00 7.3599360924161372e-01 6.4998006598019287e-01 0 0 0
9 1 3.0704479204013087e+00 -7.9441149741031544e-02 -1.7482827915284521e-02 0 0 0
10 1 3.8707364953749845e+00 7.6474075112169904e-01 -6.7238262418320649e-02 0 0 0
11 1 3.9051275328265644e+00 1.2284025300040874e+01 6.7282987458994137e-01 0 -1 0
12 1 3.2060560078118665e+00 6.9029257299939017e-01 6.9930619494177926e-01 0 0 0
13 1 4.6842783072400103e+00 1.2192461293841518e+01 -5.3548827934326533e-02 0 -1 0
14 1 5.3576650402365091e+00 6.1570033045256256e-01 -6.7520712258925308e-02 0 0 0
15 1 5.2889666909104447e+00 -6.5862655729665071e-02 7.3767187573930293e-01 0 0 0
16 1 4.5320438553984683e+00 6.9344749279594220e-01 7.5647445627561338e-01 0 0 0
17 1 6.1864477669106073e+00 1.2353438111629771e+01 1.9456917218795694e-03 0 -1 0
18 1 6.9656530162279982e+00 7.2020478149999256e-01 -1.6132888180654295e-02 0 0 0
19 1 7.0399311625656908e+00 -5.0373717712659943e-02 6.6497810964628412e-01 0 0 0
20 1 6.1422711756720192e+00 7.2439262339856358e-01 7.8518286565584638e-01 0 0 0
21 1 7.7629923819367699e+00 1.2379598771272814e+01 -8.8904799295051545e-02 0 -1 0
22 1 8.6508818669795460e+00 7.1951224278306913e-01 1.2371437784524264e+01 0 0 -1
23 1 8.6932258318373670e+00 -3.0604661543144979e-02 6.6861150336945885e-01 0 0 0
24 1 7.8572523673509096e+00 6.6512441483659357e-01 6.3902305970903039e-01 0 0 0
25 1 9.4327434083157655e+00 1.2305668170070167e+01 1.2361600187786504e+01 0 -1 -1
26 1 1.0269018492296713e+01 -5.2491586575738831e-02 8.3489823589390011e-01 0 0 0
27 1 1.0319630853987910e+01 1.1437260860284924e+01 1.5375116213510278e+00 0 -1 0
28 1 9.3417097841771088e+00 8.3599526326901752e-01 8.2482724560407072e-01 0 0 0
29 1 3.5796200155926726e+01 1.1453898893827436e+01 1.1682425956686782e+01 0 0 0
30 1 1.0558383440589186e+01 2.7072378352526399e-01 -8.4704075265509007e-02 0 0 0
31 1 1.1413066952354754e+01 1.1922619215567664e+01 1.2198342326212803e+01 0 -1 -1
32 1 1.0085896331546831e+01 3.0054127458410687e+00 1.1620624955929099e+01 0 0 -1
33 1 3.7414019369723050e+01 1.5197324057249739e+00 -7.8659939214948266e-02 -1 0 0
34 1 6.2495006946307885e-01 2.2678619965339881e+00 1.2372397435197193e+01 0 0 -1
35 1 6.7805391783643565e-01 1.5164491266451805e+00 5.9992688190004395e-01 0 0 0
36 1 3.7402060216675338e+01 2.2722623274390759e+00 6.8909446019177156e-01 -1 0 0
37 1 1.4875767936313222e+00 1.3689196184483903e+00 1.2269447543666082e+01 0 0 -1
38 1 2.2837571290440102e+00 2.1934980465568934e+00 1.2227636391076548e+01 0 0 -1
39 1 2.2579523557907488e+00 1.5433214985246766e+00 6.0332677810175284e-01 0 0 0
40 1 1.4087493567489409e+00 2.2774049632202376e+00 6.2103124110140995e-01 0 0 0
41 1 3.1136429762116431e+00 1.4905447217367140e+00 -9.1971047530346003e-02 0 0 0
42 1 3.8816241853103546e+00 2.1414192709281785e+00 1.2375551858146238e+01 0 0 -1
43 1 3.9300417439089754e+00 1.5552645796942641e+00 6.9187597244618504e-01 0 0 0
44 1 3.0319048276230465e+00 2.1835657796423305e+00 6.1305600725070375e-01 0 0 0
45 1 4.6530354230616133e+00 1.4447449927438754e+00 1.2366628679651463e+01 0 0 -1
46 1 5.4053140451742125e+00 2.2767927047983156e+00 7.0333397069362258e-02 0 0 0
47 1 5.3066167905351689e+00 1.4657907444149647e+00 6.7214540990945826e-01 0 0 0
48 1 4.6057783033452848e+00 2.2976758574321896e+00 7.0316089520761016e-01 0 0 0
49 1 6.0878632544502738e+00 1.3908994337564611e+00 2.9591683264920815e-02 0 0 0
50 1 6.8145420382016342e+00 2.2546645867930639e+00 1.2381173530028246e+01 0 0 -1
51 1 7.0086959801680138e+00 1.4824964229091615e+00 6.5765346372295674e-01 0 0 0
52 1 6.1987166915497385e+00 2.2494301223680817e+00 6.7668497424747198e-01 0 0 0
53 1 7.9019994886664415e+00 1.4531799234420690e+00 -7.8302264144717360e-02 0 0 0
54 1 8.5776533902722569e+00 2.3128687523803890e+00 -5.7569978454011073e-02 0 0 0
55 1 8.5472250064393798e+00 1.5452706896859481e+00 7.3723045595517245e-01 0 0 0
56 1 7.7651805088360168e+00 2.3670461931581150e+00 6.7362873075129870e-01 0 0 0
57 1 9.6960113620413324e+00 1.3781887919345484e+00 1.1168230605946697e-02 0 0 0
58 1 1.0456552452769991e+01 3.2317640343479472e+00 3.3220439050983774e-01 0 0 0
59 1 3.6640171903042251e+01 1.0781463413849067e+01 1.1561594430429974e+01 0 0 0
60 1 9.3673939564782671e+00 2.4151776468432229e+00 7.0860844176031013e-01 0 0 0
61 1 1.0496930763915465e+01 1.7398740052900008e+00 1.1617337808653389e+01 0 0 -1
62 1 3.6668138593643519e+01 1.1512861413510462e+01 1.0907897965852769e+01 0 0 0
63 1 1.1091933055339165e+01 1.1820220398598849e+01 2.1271281561632649e+00 0 -1 0
64 1 1.1233052223772475e+01 2.9720752105250869e+00 1.2858708502416107e+00 0 0 0
65 1 -9.9969210365836322e-02 2.9656878921152643e+00 1.2303955892683074e+01 0 0 -1
66 1 6.5923463627582424e-01 3.9815206561201357e+00 1.2325906218325308e+01 0 0 -1
67 1 6.2913606977631120e-01 3.0432878462381558e+00 5.3649069593491683e-01 0 0 0
68 1 3.7335777676875900e+01 3.7985213894868557e+00 7.0638104058444851e-01 -1 0 0
69 1 1.4422758217110756e+00 3.1263580825398334e+00 1.2315104910214981e+01 0 0 -1
70 1 2.2755952141596754e+00 3.8262961764436607e+00 1.2393492280421462e+01 0 0 -1
71 1 2.2631427030841129e+00 2.9349357296935850e+00 4.9973849849046248e-01 0 0 0
72 1 1.5393788095985199e+00 3.7442061789009595e+00 6.3124988695489448e-01 0 0 0
73 1 2.9966140589642416e+00 2.9182264417452441e+00 1.2392578671210561e+01 0 0 -1
74 1 3.6825751600389216e+00 3.7929281896756710e+00 1.2384041043509448e+01 0 0 -1
75 1 3.7957759548931898e+00 2.9645650950947355e+00 6.6432530568857684e-01 0 0 0
76 1 2.9881008753247280e+00 3.7025135376031475e+00 6.5728432787930735e-01 0 0 0
77 1 4.5934963722565048e+00 3.0614742532808514e+00 1.2316672008031713e+01 0 0 -1
78 1 5.3028583615848941e+00 3.8461325753432662e+00 1.2380508693054182e+01 0 0 -1
79 1 5.4147648949167477e+00 3.1233066127365690e+00 7.5735591088154908e-01 0 0 0
80 1 4.5178507237651422e+00 3.8205869880888694e+00 5.9860869586825727e-01 0 0 0
81 1 5.8977186253862026e+00 3.0533318162591643e+00 1.2347318510106987e+01 0 0 -1
82 1 6.9430419523046281e+00 3.8287495867137573e+00 1.2312773586748367e+01 0 0 -1
83 1 6.9393999323498443e+00 3.0698302966043189e+00 5.7793945253677526e-01 0 0 0
84 1 6.1520553941631846e+00 3.8963181228180805e+00 5.8879112408707046e-01 0 0 0
85 1 7.8548565978593787e+00 3.1597446400098681e+00 1.2372401635591583e+01 0 0 -1
86 1 8.6065459384906475e+00 3.8357273731810078e+00 1.2247269489944340e+01 0 0 -1
87 1 8.5923308712059452e+00 3.1667115405051622e+00 6.4631115101971948e-01 0 0 0
88 1 7.8347131927956664e+00 3.9219977314035290e+00 5.7560295362844560e-01 0 0 0
89 1 9.4577496217976424e+00 3.0763630072727954e+00 -6.7656524532754767e-02 0 0 0
90 1 1.0298669228918246e+01 4.0372512670509657e+00 1.2323209701631971e+01 0 0 -1
91 1 3.5838435126183704e+01 1.0846675816255761e+01 1.0932142510523363e+01 0 0 0
92 1 9.4140781298271889e+00 3.8037945251625183e+00 5.9163678712994283e-01 0 0 0
93 1 1.0310354722076411e+01 1.8005134003524255e+00 2.0139467625200531e+00 0 0 0
94 1 1.2136809979402376e+01 4.5545193768021353e+00 7.3403889902749175e-01 0 0 0
95 1 1.1975479200628801e+01 1.6051519502832048e+00 1.8812733863676236e+00 0 0 0
96 1 1.2237071848731606e+01 3.5002158280544768e+00 1.0490816157400633e+00 0 0 0
97 1 -1.1372733319767239e-01 4.6588033383160088e+00 1.2263141136648731e+01 0 0 -1
98 1 7.3266287047715983e-01 5.2390322666923996e+00 1.2390515289955566e+01 0 0 -1
99 1 5.4842138818797148e-01 4.5541728548779155e+00 6.5632373162315405e-01 0 0 0
100 1 3.7367379599998564e+01 5.4212149535318659e+00 6.6977921833313414e-01 -1 0 0
101 1 1.5929994362697069e+00 4.5772414513055590e+00 -5.6792682129754891e-02 0 0 0
102 1 2.3145321274001689e+00 5.3670139254421221e+00 -4.4310247120737438e-02 0 0 0
103 1 2.2276828557311168e+00 4.6050050544074228e+00 7.1782290605915722e-01 0 0 0
104 1 1.4663166084010613e+00 5.4153162657377498e+00 6.8807283504552930e-01 0 0 0
105 1 2.9916886198823205e+00 4.5607948802729821e+00 1.2362104248222934e+01 0 0 -1
106 1 3.7884515065513593e+00 5.3924496479197028e+00 -9.3053406255872204e-02 0 0 0
107 1 3.8555793953712332e+00 4.6088480230690818e+00 8.1734741833880908e-01 0 0 0
108 1 3.0417131386493113e+00 5.3727512031985887e+00 6.2989777934209568e-01 0 0 0
109 1 4.4432050156053267e+00 4.5403348627627498e+00 -5.4949109375987612e-02 0 0 0
110 1 5.2441480869859811e+00 5.3742396791858678e+00 1.2315117130285440e+01 0 0 -1
111 1 5.2710803917108962e+00 4.4825998993947929e+00 6.2775651480089190e-01 0 0 0
112 1 4.6124149663695899e+00 5.3998852983152492e+00 6.6240911006432368e-01 0 0 0
113 1 6.1248443667512200e+00 4.6135661287890875e+00 1.2307340888244916e+01 0 0 -1
114 1 6.9027227093103170e+00 5.3204823364973128e+00 1.2344368957878388e+01 0 0 -1
115 1 6.9504005588465914e+00 4.6511342810125793e+00 5.9145914559455048e-01 0 0 0
116 1 6.1289658840712944e+00 5.3135576358234422e+00 5.2076285347930451e-01 0 0 0
117 1 7.8689379904888916e+00 4.5347164330911838e+00 1.2290315580108402e+01 0 0 -1
118 1 8.6294294625996173e+00 5.3346687831893158e+00 1.2336472523766425e+01 0 0 -1
119 1 8.6231035699627654e+00 4.5275177224469347e+00 5.6894246795947390e-01 0 0 0
120 1 7.7769651137745317e+00 5.2994344020091395e+00 4.7553074591249722e-01 0 0 0
121 1 9.3781549308880159e+00 4.4883871138367057e+00 1.2191320138586107e+01 0 0 -1
122 1 1.0176584033672416e+01 5.1794462544192879e+00 1.2268138630585820e+01 0 0 -1
123 1 1.1009458173033874e+01 5.6586023231173286e+00 7.9281207165120815e-01 0 0 0
124 1 9.3796611722525611e+00 5.2747499309034946e+00 5.0557331023527285e-01 0 0 0
125 1 1.1216342537598596e+01 3.9240159186081573e+00 5.6240524212122744e-01 0 0 0
126 1 1.1996726559467550e+01 6.3998727200456189e+00 1.4323379943067120e+00 0 0 0
127 1 1.2560508647766849e+01 2.5014170349577420e+00 2.0878202784243163e+00 0 0 0
128 1 1.0748311391575648e+01 6.9548309964519026e+00 1.1646055606905396e+01 0 0 -1
129 1 3.7396618562135487e+01 6.1522269808579706e+00 1.2323243051886838e+01 -1 0 -1
130 1 7.1598215140892030e-01 6.9243552177950729e+00 -3.1050396484102433e-02 0 0 0
131 1 8.0834249622247234e-01 6.1466517636287019e+00 7.0058888662082497e-01 0 0 0
132 1 -7.6514096352373620e-02 7.0185369700725255e+00 8.0547400027205718e-01 0 0 0
133 1 1.4911324377938426e+00 6.2079205286585291e+00 -6.7774395928764705e-02 0 0 0
134 1 2.2520722064741565e+00 6.9265514425407426e+00 1.2328671849164820e+01 0 0 -1
135 1 2.3713420614295213e+00 6.2295502228437902e+00 6.7870843893524113e-01 0 0 0
136 1 1.6292022735905589e+00 6.9857122391368778e+00 6.0371938576183182e-01 0 0 0
137 1 2.9954357840204011e+00 6.1186624284544830e+00 1.2376244135883780e+01 0 0 -1
138 1 3.7574981757366270e+00 6.9196686159635394e+00 1.2315291385126329e+01 0 0 -1
139 1 3.8511022284253338e+00 6.0349270285108272e+00 6.0469205289013916e-01 0 0 0
140 1 3.0308962729433584e+00 6.9969073069086756e+00 6.6530910714071656e-01 0 0 0
141 1 4.5371118895158329e+00 6.1502547390337163e+00 1.2255104556078013e+01 0 0 -1
142 1 5.4248515563499256e+00 6.8491515721426577e+00 1.2322439612740187e+01 0 0 -1
143 1 5.4069116144633380e+00 6.0301203282980724e+00 7.5826061221502805e-01 0 0 0
144 1 4.6257326225054234e+00 6.8096901429542100e+00 5.1973826391673750e-01 0 0 0
145 1 6.1848264210434616e+00 6.1062264252019940e+00 1.2363293144046995e+01 0 0 -1
146 1 6.9080526510677309e+00 6.9551750873083034e+00 1.2305578680256197e+01 0 0 -1
147 1 7.0300780439440889e+00 6.2327170902941171e+00 6.0167073933470128e-01 0 0 0
148 1 6.1971682998305617e+00 6.9662290187470362e+00 5.7647099980479399e-01 0 0 0
149 1 7.7374325443840366e+00 6.2519517308353789e+00 1.2369137925801436e+01 0 0 -1
150 1 8.5012353288363514e+00 6.9117135161997565e+00 1.2291907965173909e+01 0 0 -1
151 1 8.4427564737247174e+00 6.1015001260898627e+00 5.9551855697309752e-01 0 0 0
152 1 7.7333878369094666e+00 7.0564096867441410e+00 6.6007487118326458e-01 0 0 0
153 1 9.2779495394383957e+00 6.2113519404300250e+00 3.0269052248180939e-02 0 0 0
154 1 1.0054954399580847e+01 6.8406073475929432e+00 -9.2195153756265094e-02 0 0 0
155 1 1.0907646149722137e+01 6.4430921371999981e+00 1.4318410726926190e+00 0 0 0
156 1 9.2844811506890430e+00 6.9262687780526138e+00 7.0855897519013411e-01 0 0 0
157 1 1.0895979772400029e+01 6.0348165589865044e+00 1.1054157947030667e+01 0 0 -1
158 1 1.0958981626471239e+01 6.0674914244079208e+00 1.2190160105221228e+01 0 0 -1
159 1 1.1289512935083646e+01 4.9410938692700768e+00 7.2354547767094129e-02 0 0 0
160 1 1.0209330841182002e+01 7.9532185088395480e+00 1.8611345307433114e+00 0 0 0
161 1 -8.0251464642084547e-02 7.7338587365704061e+00 1.2330087100734701e+01 0 0 -1
162 1 6.8714836998715334e-01 8.4508710231695989e+00 -8.9382756661175317e-02 0 0 0
163 1 7.2055422610317532e-01 7.7301395859040367e+00 6.7358727411956676e-01 0 0 0
164 1 3.7361085640569272e+01 8.4472389852262069e+00 6.5910188264126868e-01 -1 0 0
165 1 1.4771252776444146e+00 7.7131264301892202e+00 1.2364837671777682e+01 0 0 -1
166 1 2.1605836450868003e+00 8.5125747189564152e+00 -3.5075695281283868e-02 0 0 0
167 1 2.3639385088116964e+00 7.7321666988029785e+00 6.1495690845959861e-01 0 0 0
168 1 1.5382520036084719e+00 8.3803172038344069e+00 7.0824509741877473e-01 0 0 0
169 1 3.0858666915180448e+00 7.7434821004761583e+00 -2.9448937098661074e-02 0 0 0
170 1 3.8287741511199123e+00 8.5091296328929946e+00 4.1481886949189334e-02 0 0 0
171 1 3.8461836966112024e+00 7.6063299338932824e+00 6.7439659389192996e-01 0 0 0
172 1 3.0416424758045451e+00 8.4833678005460982e+00 6.2731939966090722e-01 0 0 0
173 1 4.5629118682304188e+00 7.7443864700376004e+00 -2.9342972847878707e-02 0 0 0
174 1 5.5528796126510329e+00 8.5009038104792349e+00 -9.3326381455638263e-02 0 0 0
175 1 5.3924229575562066e+00 7.6868164689264313e+00 5.3477576915741831e-01 0 0 0
176 1 4.7061301053966718e+00 8.4839007432785198e+00 6.0830245183162956e-01 0 0 0
177 1 6.1520607300190555e+00 7.5938853317454935e+00 1.2314208021255130e+01 0 0 -1
178 1 7.0860217962916314e+00 8.5424183712850770e+00 1.2267823979933990e+01 0 0 -1
179 1 6.9903693366017814e+00 7.7778610145174696e+00 6.7972966314478900e-01 0 0 0
180 1 6.3536445180048249e+00 8.4971657778219800e+00 5.8306713783064001e-01 0 0 0
181 1 7.7488055529693698e+00 7.7480850992995620e+00 1.2386145637571499e+01 0 0 -1
182 1 8.5004889005206863e+00 8.5178796846095892e+00 1.2339817490419467e+01 0 0 -1
183 1 8.4410165597548250e+00 7.7207789907351367e+00 7.0413260248691645e-01 0 0 0
184 1 7.7634983723607238e+00 8.5449897623760567e+00 7.5311159064420841e-01 0 0 0
185 1 9.2027499236660084e+00 7.6522273153616407e+00 -8.0901539225648966e-02 0 0 0
186 1 9.9330401888795805e+00 6.9669674196975597e+00 1.4823106497797300e+00 0 0 0
187 1 1.0091128977593410e+01 6.1120540002157213e+00 2.0034774308676253e+00 0 0 0
188 1 9.1546036191181273e+00 8.4658478492159137e+00 6.6890668375394335e-01 0 0 0
189 1 1.0767084733993819e+01 7.5193954702739561e+00 7.6184939242126548e-02 0 0 0
190 1 3.4278493394350640e+01 1.1563637140985977e+01 1.1663150460610943e+01 0 0 0
191 1 1.3447026273575752e+01 5.2766394168557040e+00 3.5686587230946416e+00 0 0 0
192 1 1.1231021017671463e+01 7.3934252477490903e+00 1.0575636278881364e+00 0 0 0
193 1 -3.7525717181544377e-02 9.2378487700929650e+00 -6.1531077298780615e-02 0 0 0
194 1 7.3463314558897586e-01 1.0170571825655978e+01 1.2393617947926082e+01 0 0 -1
195 1 7.3892123452779868e-01 9.3562803325576525e+00 7.7300469493753943e-01 0 0 0
196 1 3.7435573459509349e+01 1.0038224675238707e+01 5.7781909121673702e-01 -1 0 0
197 1 1.5059841783762671e+00 9.2824350181048807e+00 1.1564697911787289e-01 0 0 0
198 1 2.1858059785326147e+00 1.0131913324455137e+01 -1.1757914392439672e-02 0 0 0
199 1 2.2659763862085263e+00 9.3636573038173374e+00 7.6193959073964757e-01 0 0 0
200 1 1.5215503576857492e+00 1.0158114527865392e+01 6.6683765263530637e-01 0 0 0
201 1 2.9995043208883252e+00 9.3704180384700066e+00 -2.0288156939431201e-02 0 0 0
202 1 3.6808859036415140e+00 1.0059026070260654e+01 1.2392357890161371e+01 0 0 -1
203 1 3.8528221464566190e+00 9.2988065373955457e+00 7.6073197477227761e-01 0 0 0
204 1 3.1740551339138503e+00 1.0018720088099050e+01 7.9201054341247545e-01 0 0 0
205 1 4.5271045161419030e+00 9.2261860436526550e+00 1.2382591799587111e+01 0 0 -1
206 1 5.4973970412729010e+00 1.0003287636041785e+01 -9.0677087996221775e-02 0 0 0
207 1 5.4372223218633930e+00 9.1649659205138949e+00 6.2993994244717399e-01 0 0 0
208 1 4.6577061431968509e+00 1.0083654670215276e+01 6.4003306864076848e-01 0 0 0
209 1 6.2523461577705817e+00 9.2952748698084449e+00 1.2333626739828308e+01 0 0 -1
210 1 7.0539403728497838e+00 1.0058186934937018e+01 1.2370774722039158e+01 0 0 -1
211 1 6.9478191260059114e+00 9.4038098725430661e+00 6.2988803026187001e-01 0 0 0
212 1 6.2291958094308644e+00 1.0093505536892252e+01 6.6661218858084215e-01 0 0 0
213 1 7.8748860836502175e+00 9.3124567555011453e+00 2.5789823214480423e-02 0 0 0
214 1 8.5794978581047481e+00 1.0056028329463157e+01 1.0531276187645544e-03 0 0 0
215 1 8.5121135510112396e+00 9.2064349931399168e+00 8.1962633136572938e-01 0 0 0
216 1 7.8327896350179387e+00 1.0025719514847305e+01 7.6407766514348507e-01 0 0 0
217 1 9.3460210177316050e+00 9.3298003712139952e+00 1.2358503966865278e+01 0 0 -1
218 1 1.1194673011661479e+01 9.0080503964373317e+00 1.1182656125581776e+01 0 0 -1
219 1 1.0322197085726483e+01 1.0349822877547551e+01 1.2115629658846125e+01 0 0 -1
220 1 9.3450765388439265e+00 1.0005724130562687e+01 6.3814270465700540e-01 0 0 0
221 1 1.0169348141340794e+01 9.3010386867938646e+00 1.1736785641814450e+01 0 0 -1
222 1 1.2112907605784780e+01 9.5312420994164402e+00 5.1643155070031688e-01 0 0 0
223 1 1.2628948637016329e+01 3.5030627332773876e+00 2.0402404679810853e+00 0 0 0
224 1 1.0304975443059611e+01 1.0629833328498648e+01 1.0914246083902199e+01 0 0 -1
225 1 -1.1639652028487713e-02 1.0820047991632324e+01 -6.5249423110683796e-02 0 0 0
226 1 6.8520061180451464e-01 1.1577653406967510e+01 -2.1411504654335001e-02 0 0 0
227 1 6.2261125513814497e-01 1.0808916514294658e+01 7.4342323687461631e-01 0 0 0
228 1 3.7423625422609923e+01 1.1661862639266259e+01 6.7077753229865056e-01 -1 0 0
229 1 1.4367854566749727e+00 1.0880831658758453e+01 -5.0255219834852587e-02 0 0 0
230 1 2.2151253208859805e+00 1.1534721659521590e+01 7.7989374069483142e-02 0 0 0
231 1 2.3894746330493946e+00 1.0775890187102240e+01 7.3289453323600495e-01 0 0 0
232 1 1.4168174826996192e+00 1.1531075314962955e+01 7.6614429666979833e-01 0 0 0
233 1 2.9708830738569270e+00 1.0854084967980354e+01 1.2354466880502816e+01 0 0 -1
234 1 3.7904496043774620e+00 1.1549808843293791e+01 1.2364993968671982e+01 0 0 -1
235 1 3.8687346969463654e+00 1.0804166827066190e+01 7.7959190797065592e-01 0 0 0
236 1 3.0108613486417690e+00 1.1566148103902133e+01 7.4949608836824555e-01 0 0 0
237 1 4.6159172981767274e+00 1.0762896338115013e+01 -7.1415157129535667e-02 0 0 0
238 1 5.3716282908304596e+00 1.1525265622311251e+01 1.2331379597518115e+01 0 0 -1
239 1 5.4345660527429720e+00 1.0825333023935983e+01 5.8025230280039763e-01 0 0 0
240 1 4.6691234177671195e+00 1.1590423268742784e+01 7.3675540178590970e-01 0 0 0
241 1 6.2043055448834545e+00 1.0815464819819974e+01 1.2362016097153479e+01 0 0 -1
242 1 6.9073873185923267e+00 1.1631996837235498e+01 -1.4947719350828878e-02 0 0 0
243 1 6.9777470356388420e+00 1.0828514210514705e+01 6.1530974112710290e-01 0 0 0
244 1 6.1528456674234420e+00 1.1637390597603106e+01 6.5341755479535479e-01 0 0 0
245 1 7.8190434124785373e+00 1.0836563984602895e+01 -5.4725439312659489e-02 0 0 0
246 1 8.5300141979404529e+00 1.1564946810845205e+01 1.6363342564998037e-02 0 0 0
247 1 8.5927362818624289e+00 1.0825204050893232e+01 7.8881004928547227e-01 0 0 0
248 1 7.8391461485701290e+00 1.1600659013818730e+01 7.8652946783519928e-01 0 0 0
249 1 9.2896582311957516e+00 1.0844658904305264e+01 6.2872592053759391e-02 0 0 0
250 1 1.1388071043430688e+01 1.1586400657191557e+01 8.7710237486022291e-01 0 0 0
251 1 1.1197256967753795e+01 9.7397218089791782e+00 2.1493216633511119e+00 0 0 0
252 1 9.3677256847462651e+00 1.1629281131462232e+01 8.3582742586680181e-01 0 0 0
253 1 3.5097716530854349e+01 1.0626033233975349e+01 1.1632245365253642e+01 0 0 0
254 1 3.5077962250752030e+01 1.1544848134726729e+01 1.0886360357028579e+01 0 0 0
255 1 1.2037983198397882e+01 1.0637041216161292e+01 1.3089491944657963e+00 0 0 0
256 1 1.0995145277144534e+01 8.7136269023207316e+00 2.0018917355492665e+00 0 0 0
257 1 3.7405317536618817e+01 -5.6887125546989346e-02 1.3526291899396627e+00 -1 0 0
258 1 6.9417349042618293e-01 7.8503512103156547e-01 1.3818526962323143e+00 0 0 0
259 1 6.6794894814105465e-01 1.2366076481968479e+01 2.2785589759921385e+00 0 -1 0
260 1 3.7406391708678328e+01 7.4283644153435546e-01 2.1091787051652706e+00 -1 0 0
261 1 1.5104917811470506e+00 -6.0941336423672846e-02 1.5030844122326807e+00 0 0 0
262 1 2.4052853512861398e+00 7.5578358385065225e-01 1.3619203309301191e+00 0 0 0
263 1 2.2325030382044844e+00 1.2350825722138380e+01 2.2559932220294234e+00 0 -1 0
264 1 1.6024825247412346e+00 7.5224347106146339e-01 2.1580983577516926e+00 0 0 0
265 1 3.0678719956779763e+00 1.2334483953347057e+01 1.5544767794643077e+00 0 -1 0
266 1 3.8064792929313263e+00 6.0619811289372239e-01 1.5143913262878483e+00 0 0 0
267 1 3.8690942741411298e+00 1.2276067032919347e+01 2.2382121321604593e+00 0 -1 0
268 1 3.1115440912959773e+00 7.1228475718672313e-01 2.2239276226768863e+00 0 0 0
269 1 4.6121066084530833e+00 -6.9313234082249084e-02 1.4017477423851885e+00 0 0 0
270 1 5.4136891143551882e+00 6.7211255036318207e-01 1.5198118337010367e+00 0 0 0
271 1 5.4189060209029485e+00 -5.8676967916316741e-02 2.2546190898869996e+00 0 0 0
272 1 4.6355297471813222e+00 6.7296922135757031e-01 2.2182118513226574e+00 0 0 0
273 1 6.1082632240278985e+00 -9.0139929836807464e-03 1.4134638877032826e+00 0 0 0
274 1 6.9011172962501366e+00 8.2973064506978667e-01 1.4649247965078906e+00 0 0 0
275 1 6.7299650477394506e+00 8.3890952869152380e-02 2.2391403124141398e+00 0 0 0
276 1 6.0671892585601688e+00 7.7296190776957230e-01 2.1957665333590364e+00 0 0 0
277 1 7.6070861414861950e+00 6.3706742391695798e-03 1.5144517213398374e+00 0 0 0
278 1 8.6280334877251335e+00 7.1062586002952421e-01 1.4131682765376774e+00 0 0 0
279 1 8.5996997074638948e+00 -2.6021062957364706e-02 2.2786911274203359e+00 0 0 0
280 1 7.7016407165202523e+00 8.3173089182671256e-01 2.2156444808629749e+00 0 0 0
281 1 9.4179318756279535e+00 -8.1363089101639433e-02 1.5625467142936849e+00 0 0 0
282 1 1.0217574010146325e+01 1.5601687435035112e+00 9.7297773947570643e-01 0 0 0
283 1 1.0230091149124444e+01 1.2352023597188021e+01 2.1967755945731313e+00 0 -1 0
284 1 9.2837953969292109e+00 7.6779297704812566e-01 2.1914177540257063e+00 0 0 0
285 1 1.2830195643470880e+01 4.1345107655337332e-01 1.4528685673545749e+00 0 0 0
286 1 3.4448936329830211e+01 1.0755241136663875e+01 1.0940487558935910e+01 0 0 0
287 1 1.0037706011215409e+01 7.9694380730190428e-01 1.5923068607336774e+00 0 0 0
288 1 3.2705756625895333e+01 1.1481317115156923e+01 1.1577484924687514e+01 0 0 0
289 1 3.1735021047230638e-02 1.5509405726760126e+00 1.4492016559378682e+00 0 0 0
290 1 7.9914730047330829e-01 2.3239313150548586e+00 1.4417289671834810e+00 0 0 0
291 1 7.0604500761959110e-01 1.4143602633586341e+00 2.2624690511878502e+00 0 0 0
292 1 -3.6405903604898621e-02 2.2847357533423236e+00 2.1007510768501669e+00 0 0 0
293 1 1.5207061782492814e+00 1.5194881505664808e+00 1.4602418625765594e+00 0 0 0
294 1 2.2505305528223776e+00 2.1968825969161689e+00 1.4453646376845928e+00 0 0 0
295 1 2.4189519601972194e+00 1.4667554423591225e+00 2.2327956138100116e+00 0 0 0
296 1 1.4666674720258670e+00 2.1564044110341736e+00 2.2425630058828019e+00 0 0 0
297 1 3.1925667467798906e+00 1.4361188711424604e+00 1.3905896668332667e+00 0 0 0
298 1 3.8098603886689708e+00 2.3382889901067205e+00 1.4224753368017999e+00 0 0 0
299 1 3.8380669572802706e+00 1.5514368360816309e+00 2.1709446617064576e+00 0 0 0
300 1 3.1473288222046896e+00 2.2210565267221738e+00 2.1682859204767753e+00 0 0 0
301 1 4.6912163784560557e+00 1.5060537200433315e+00 1.5137434625971651e+00 0 0 0
302 1 5.3671943424872826e+00 2.3124843612472183e+00 1.4018625279700172e+00 0 0 0
303 1 5.4123507177780690e+00 1.4747628169609381e+00 2.3509445439467389e+00 0 0 0
304 1 4.6228464125473323e+00 2.2189022982159696e+00 2.2098004999709504e+00 0 0 0
305 1 6.0502151783965923e+00 1.5192499810252531e+00 1.4104436863030845e+00 0 0 0
306 1 6.9341249990279401e+00 2.2673770392070947e+00 1.4944629996579795e+00 0 0 0
307 1 6.8568215271892621e+00 1.4639128771895125e+00 2.3342861630896192e+00 0 0 0
308 1 6.1184002712831731e+00 2.2498375032862219e+00 2.1739244704752441e+00 0 0 0
309 1 7.8327582183572204e+00 1.6867141878549710e+00 1.3819490923871207e+00 0 0 0
310 1 8.6339617955353312e+00 2.4607764658131530e+00 1.4646788354915612e+00 0 0 0
311 1 8.4393998918933946e+00 1.5434078093376398e+00 2.1750771944850116e+00 0 0 0
312 1 7.7016397958935983e+00 2.3718087824771725e+00 2.4489821015253783e+00 0 0 0
313 1 9.4219148900757048e+00 1.7768227682751887e+00 1.5870624079470861e+00 0 0 0
314 1 1.0364058818201965e+01 2.5096129397130627e+00 1.0369156523304597e+00 0 0 0
315 1 1.0114804465554847e+01 8.8630899637513705e-01 3.0200602265698522e+00 0 0 0
316 1 9.4540431416605450e+00 2.4062998346883520e+00 2.3173439085900194e+00 0 0 0
317 1 1.2350319704247415e+01 8.6492753853817361e-01 2.5408716308965884e+00 0 0 0
318 1 1.3388513240422903e+01 2.2970294433214065e+00 1.3244781815487159e+00 0 0 0
319 1 1.4317893395793607e+01 2.7847694630659650e+00 5.2696534480259496e+00 0 0 0
320 1 1.2659881770302267e+01 1.0717284731018633e+00 3.5754807006770246e+00 0 0 0
321 1 -2.8796486971685784e-02 3.0372066705150411e+00 1.4065788029727391e+00 0 0 0
322 1 7.6351503980386082e-01 3.7310034301400243e+00 1.3375064003733501e+00 0 0 0
323 1 7.6540556212082655e-01 2.9956468982319766e+00 2.3053697255835610e+00 0 0 0
324 1 2.1662384625346975e-02 3.7229152079499590e+00 2.1614429894838234e+00 0 0 0
325 1 1.5376249394940686e+00 2.9741845153408786e+00 1.4973253800512758e+00 0 0 0
326 1 2.2386983535529059e+00 3.7625478670786872e+00 1.4063788333642850e+00 0 0 0
327 1 2.4025433311753903e+00 2.9297588226826523e+00 2.2860150675146902e+00 0 0 0
328 1 1.4469986133010839e+00 3.7036623399882962e+00 2.0774399565842545e+00 0 0 0
329 1 2.9556276522078715e+00 2.9450624166046073e+00 1.3498129572735822e+00 0 0 0
330 1 3.7638503643631531e+00 3.8278274517244628e+00 1.4874907371385313e+00 0 0 0
331 1 3.6863278165880193e+00 3.0439576366961436e+00 2.1240488753375306e+00 0 0 0
332 1 2.9266924703299995e+00 3.8248082008191817e+00 2.1308294506889625e+00 0 0 0
333 1 4.6375424887555914e+00 3.0656010652183068e+00 1.3965271937404420e+00 0 0 0
334 1 5.3401234738144838e+00 3.8565431832168677e+00 1.4206590264937033e+00 0 0 0
335 1 5.3406387391992896e+00 3.0548434655137897e+00 2.1466096176932878e+00 0 0 0
336 1 4.5056039580445058e+00 3.8285094755484677e+00 2.1263868998839879e+00 0 0 0
337 1 6.1161402635524542e+00 3.0513174895324924e+00 1.3903185125638571e+00 0 0 0
338 1 6.8991076831451039e+00 3.7507799519253404e+00 1.5007268132585934e+00 0 0 0
339 1 6.8052405269648784e+00 3.0377683694765443e+00 2.2852810748215364e+00 0 0 0
340 1 6.0739267583239407e+00 3.8160776940812222e+00 2.1624678799698072e+00 0 0 0
341 1 7.7776235211251956e+00 3.0095969412316173e+00 1.4222385869920426e+00 0 0 0
342 1 8.6033493006801969e+00 3.9893468900425013e+00 1.4241646945082156e+00 0 0 0
343 1 8.6518159381133337e+00 3.2217116408462236e+00 2.1821271095680856e+00 0 0 0
344 1 7.7036213029835583e+00 3.7768129680987341e+00 2.2366818346287238e+00 0 0 0
345 1 9.5464600256106067e+00 3.1221758612242909e+00 1.5850497123980318e+00 0 0 0
346 1 1.0360073016710128e+01 4.6172361192201583e+00 6.6844747448353958e-01 0 0 0
347 1 1.0163718723022729e+01 2.0852110999419793e+00 3.0107154653616117e+00 0 0 0
348 1 9.6073623695669603e+00 3.8987053369506062e+00 2.2063134141454248e+00 0 0 0
349 1 1.2018299400115453e+01 8.8782687311226516e-01 1.0349927656542928e+00 0 0 0
350 1 1.2896483021903222e+01 1.9096914463085874e+00 2.9198344749340626e+00 0 0 0
351 1 1.4272545568125622e+01 1.3693786887737140e+00 2.8420021872845429e+00 0 0 0
352 1 1.1308105386417250e+01 2.3654076960546404e+00 2.2858841675172283e+00 0 0 0
353 1 3.7383023868589561e+01 4.5946718458158387e+00 1.4622623514971549e+00 -1 0 0
354 1 6.0607427957455606e-01 5.3104396348403071e+00 1.3194880474574078e+00 0 0 0
355 1 7.4839812567610620e-01 4.6128168592060694e+00 2.1818521237820345e+00 0 0 0
356 1 3.7264243604217278e+01 5.3676133884898896e+00 2.1615678802659009e+00 -1 0 0
357 1 1.4307404332179399e+00 4.5297246357003393e+00 1.4055814864899407e+00 0 0 0
358 1 2.2391245012581353e+00 5.4242717881691664e+00 1.3621083535091532e+00 0 0 0
359 1 2.1746348972299163e+00 4.6182567277657602e+00 2.1816580528372120e+00 0 0 0
360 1 1.4482276900661437e+00 5.3479387303978019e+00 2.2020812375401180e+00 0 0 0
361 1 2.9499426736913668e+00 4.5348887636627007e+00 1.4418757044086989e+00 0 0 0
362 1 3.7367421386084136e+00 5.3868713451357930e+00 1.4601801171537452e+00 0 0 0
363 1 3.7450033616706984e+00 4.5934853316590347e+00 2.2884378197771480e+00 0 0 0
364 1 2.8902109978719541e+00 5.3486379734188052e+00 2.3655672644824595e+00 0 0 0
365 1 4.5431852795310794e+00 4.6472027791165837e+00 1.5318512488034324e+00 0 0 0