LAMMPS data file via write_data, version 31 Mar 2017, timestep = 800000

2048 atoms
1 atom types

0.0000000000000000e+00 1.2302095357258100e+01 xlo xhi
0.0000000000000000e+00 1.2302095357258100e+01 ylo yhi
0.0000000000000000e+00 1.2302095357258100e+01 zlo zhi
0.0000000000000000e+00 0.0000000000000000e+00 0.0000000000000000e+00 xy xz yz

Masses

1 1

Atoms # atomic

1 1 1.2252034420641579e+01 1.2261257542721145e+01 1.2246838358299931e+01 -1 -1 -1
2 1 7.6328611450905182e-01 6.5574422560388279e-01 1.1385820657289841e-03 0 0 0
3 1 7.5424453271155234e-01 1.3624566851883147e-02 7.8175467802981491e-01 0 0 0
4 1 1.5684547404627016e-02 8.0645411530784827e-01 7.2032730240265208e-01 0 0 0
5 1 1.6049797659739131e+00 1.2287857980451417e+01 1.2266766287524300e+01 0 -1 -1
6 1 2.3892142757366734e+00 8.2288020745704848e-01 1.2266412129445087e+01 0 0 -1
7 1 2.3465993577273649e+00 1.2298448159680825e+01 7.8452213752777999e-01 0 -1 0
8 1 1.4999821793602119e+00 7.5998396089944165e-01 7.0432867363233298e-01 0 0 0
9 1 3.2411348294232845e+00 5.1807921101664003e-02 1.2239537838662303e+01 0 0 -1
10 1 3.9104910506471460e+00 7.4270846716251293e-01 6.7642064123589918e-02 0 0 0
11 1 3.8579870689011821e+00 1.0141285803471313e-01 8.2988477973746744e-01 0 0 0
12 1 3.1512291678489190e+00 8.1717880634639528e-01 8.2823271014776645e-01 0 0 0
13 1 4.6107638896406975e+00 1.2198606257657788e+01 1.2808250749530523e-01 0 -1 0
14 1 5.3837269256101559e+00 7.3272110450338301e-01 6.0864983407087708e-02 0 0 0
15 1 5.3992921077764064e+00 1.2217721635584009e+01 8.2059263319812115e-01 0 -1 0
16 1 4.6119100880623494e+00 8.0768754776622986e-01 7.6130840073131034e-01 0 0 0
17 1 6.1328260185626799e+00 1.3274033254628458e-02 2.1883632831547640e-02 0 0 0
18 1 6.9597217707365235e+00 8.1815017524931444e-01 1.6602085204145915e-02 0 0 0
19 1 6.9982753995521847e+00 4.7780928623832722e-02 8.6140763514540508e-01 0 0 0
20 1 6.1561168445491186e+00 7.4045745717095390e-01 8.1500511303502732e-01 0 0 0
21 1 7.6511242632047507e+00 1.2226065053805119e+01 2.4026665566021909e-02 0 -1 0
22 1 8.4504686137725677e+00 7.5103048013562579e-01 1.2273010270588868e+01 0 0 -1
23 1 8.3927361005592243e+00 1.2298182155664787e+01 7.1161184515217635e-01 0 -1 0
24 1 7.7343273804444648e+00 8.2934930874532831e-01 7.8327508869025386e-01 0 0 0
25 1 9.2173011965356118e+00 2.2397485807022704e-02 1.2695876746433393e-01 0 0 0
26 1 9.9905205130447694e+00 7.0767969983762480e-01 2.3505450720026404e-02 0 0 0
27 1 1.0003888712828424e+01 1.2226046533699398e+01 7.5594847430167444e-01 0 -1 0
28 1 9.2218580026452273e+00 8.1099986357137521e-01 8.3992309673616838e-01 0 0 0
29 1 1.0809322080646782e+01 2.7830272194650733e-02 1.2290770755251259e+01 0 0 -1
30 1 1.1620806036923263e+01 7.5930627936283923e-01 1.2280468861059711e+01 0 0 -1
31 1 1.1493259744067016e+01 4.6859385711149962e-03 6.9872987016284616e-01 0 0 0
32 1 1.0703595031464905e+01 8.1137953718544342e-01 6.9976789075163071e-01 0 0 0
33 1 1.2206569361521710e+01 1.5387576789884452e+00 1.2297825536648045e+01 -1 0 -1
34 1 8.3056938529734103e-01 2.3151864927730856e+00 1.2283131209581454e+01 0 0 -1
35 1 7.4181189855569551e-01 1.5575542171408121e+00 7.7017309260484257e-01 0 0 0
36 1 1.2290927953066138e+01 2.3784879346669920e+00 7.1633438570875030e-01 -1 0 0
37 1 1.5533544116182321e+00 1.5380795598756849e+00 3.4904739958462862e-02 0 0 0
38 1 2.3173150998337140e+00 2.3198367017295460e+00 1.5535932764466458e-02 0 0 0
39 1 2.3298569094508288e+00 1.5887594131132867e+00 7.7192991683662238e-01 0 0 0
40 1 1.5342455137527180e+00 2.3951943296808680e+00 6.8594200023558571e-01 0 0 0
41 1 3.2125718766672788e+00 1.5815830380082065e+00 3.0635359592793447e-02 0 0 0
42 1 3.9439341968859223e+00 2.3264211472528697e+00 5.6876957574238683e-02 0 0 0
43 1 3.9424363636707329e+00 1.6408438024673027e+00 7.9212858479329873e-01 0 0 0
44 1 3.0812064419972147e+00 2.2583282891527299e+00 8.4293838389566977e-01 0 0 0
45 1 4.7224141295595308e+00 1.5499450280754625e+00 4.8531352709467103e-02 0 0 0
46 1 5.3483181523056613e+00 2.3553761474646504e+00 2.4514067464223771e-02 0 0 0
47 1 5.4173213776568891e+00 1.5737741099438198e+00 8.0944623876888999e-01 0 0 0
48 1 4.7076681992331890e+00 2.3495589691429029e+00 8.0951705322461220e-01 0 0 0
49 1 6.1122020711275109e+00 1.4951011198819779e+00 8.9616289122518844e-02 0 0 0
50 1 6.8117246161611380e+00 2.3362349716503159e+00 1.2285722364825196e+01 0 0 -1
51 1 6.9684552326509213e+00 1.5990609460937033e+00 7.8694578150552730e-01 0 0 0
52 1 6.1332351600987902e+00 2.3292014521607776e+00 8.1694366440755750e-01 0 0 0
53 1 7.6573216710943228e+00 1.6341119353364162e+00 5.0625379459498895e-02 0 0 0
54 1 8.4417914063083863e+00 2.3323193797975157e+00 2.9980922882487916e-02 0 0 0
55 1 8.5488245253112378e+00 1.5914798754565778e+00 8.2331289527573581e-01 0 0 0
56 1 7.7812374790282686e+00 2.3270765538115357e+00 8.8162304033846572e-01 0 0 0
57 1 9.2081008041006349e+00 1.4834174219269289e+00 1.2269482113850900e+01 0 0 -1
58 1 9.9801674124403750e+00 2.2925819556914773e+00 1.2249148320327713e+01 0 0 -1
59 1 9.9248154435332108e+00 1.6037426249623288e+00 7.6298252713913428e-01 0 0 0
60 1 9.2500008676178389e+00 2.3835458588123002e+00 7.1264877237478885e-01 0 0 0
61 1 1.0697144687065336e+01 1.4828085838624232e+00 1.2296427623697163e+01 0 0 -1
62 1 1.1500611603084922e+01 2.3077929283158993e+00 1.2256989083803864e+01 0 0 -1
63 1 1.1493046040386515e+01 1.5572458925557331e+00 7.0151729503290705e-01 0 0 0
64 1 1.0710229925671264e+01 2.2495559710825366e+00 7.4991038153662615e-01 0 0 0
65 1 1.2227692858621792e+01 3.1482855998521542e+00 1.2233411109953895e+01 -1 0 -1
66 1 7.8907417693451631e-01 3.8660656040496741e+00 1.2291917822503828e+01 0 0 -1
67 1 6.8607640228259259e-01 3.1176039853824169e+00 7.3054725289558864e-01 0 0 0
68 1 1.2296136941015304e+01 3.8671770810779984e+00 7.4030521133899063e-01 -1 0 0
69 1 1.5042282160138691e+00 3.1130131527095082e+00 5.6509305547536214e-02 0 0 0
70 1 2.3130517855460102e+00 3.7693550457440641e+00 1.2300415975758554e+01 0 0 -1
71 1 2.3629694865975832e+00 3.0428396754292746e+00 8.5544668560106341e-01 0 0 0
72 1 1.6242214305405038e+00 3.9257718086474043e+00 8.1610760752984690e-01 0 0 0
73 1 3.1105058313799532e+00 3.0533735292648210e+00 6.0431252547599124e-02 0 0 0
74 1 3.8274450665033846e+00 3.7944807334641157e+00 6.7367121059115811e-02 0 0 0
75 1 3.8669734808145373e+00 3.0531952372413502e+00 8.0410158220679284e-01 0 0 0
76 1 3.0246054878517334e+00 3.8186864164784380e+00 8.2266359472558526e-01 0 0 0
77 1 4.6490808534159846e+00 3.0843743120287046e+00 1.1920382889049552e-01 0 0 0
78 1 5.3282107434733224e+00 3.9011835829232462e+00 3.2964143002544487e-02 0 0 0
79 1 5.3177480399875598e+00 3.1096304091531342e+00 8.6185731369637997e-01 0 0 0
80 1 4.5999309516088918e+00 3.8674887782350691e+00 7.5858592844688688e-01 0 0 0
81 1 6.1347223456553417e+00 3.1349000852673945e+00 5.3927685463729192e-04 0 0 0
82 1 6.9750915597380700e+00 3.8512514977039891e+00 1.2291755913342421e+01 0 0 -1
83 1 6.8273320317355912e+00 3.0648042285032653e+00 7.3040770636461261e-01 0 0 0
84 1 6.1050797459014223e+00 3.8377798702927599e+00 7.8995922736526747e-01 0 0 0
85 1 7.6840049992763708e+00 3.0650093370100056e+00 1.2296334507599605e+01 0 0 -1
86 1 8.4757250223833243e+00 3.8924826212221038e+00 1.0101992788932316e-02 0 0 0
87 1 8.4814888328481484e+00 3.1063896909058371e+00 7.8750877147432419e-01 0 0 0
88 1 7.7271488037631171e+00 3.8497832334969821e+00 7.6919189258450515e-01 0 0 0
89 1 9.2568491077337232e+00 3.0870020044523776e+00 8.1295046131746925e-03 0 0 0
90 1 1.0005648538829007e+01 3.8588989260239654e+00 2.2923657362086170e-02 0 0 0
91 1 1.0062657976214096e+01 3.0951403679071174e+00 7.6403773183505863e-01 0 0 0
92 1 9.1687600723877321e+00 3.9091240110595087e+00 7.4680605305379766e-01 0 0 0
93 1 1.0841486185861278e+01 3.1392680650240616e+00 1.9887913948583896e-02 0 0 0
94 1 1.1533257415126617e+01 3.9911091110145476e+00 3.7423643089818368e-02 0 0 0
95 1 1.1516068808710672e+01 3.1371676062759488e+00 7.7524559765904133e-01 0 0 0
96 1 1.0853373731017481e+01 3.8868546816987157e+00 8.4181890415166272e-01 0 0 0
97 1 2.5489297281545979e-02 4.6359987055846785e+00 1.7155561720025744e-02 0 0 0
98 1 7.7397723430059784e-01 5.3912546777127934e+00 1.7390987984863885e-02 0 0 0
99 1 7.5109767020400497e-01 4.6317439846601518e+00 7.6987020990542898e-01 0 0 0
100 1 1.1790516624110590e-02 5.4329195580581242e+00 7.9380359047359117e-01 0 0 0
101 1 1.5670762810533156e+00 4.6459359128368209e+00 1.0782916117237094e-01 0 0 0
102 1 2.3605997225033866e+00 5.4327328133488102e+00 1.2302009249765680e+01 0 0 -1
103 1 2.3839922909087332e+00 4.6391244510908383e+00 8.5733658430327919e-01 0 0 0
104 1 1.5527348675002379e+00 5.3781267791842806e+00 7.3279334970235610e-01 0 0 0
105 1 2.9854554763157606e+00 4.5145678736636325e+00 1.2267056284284758e+01 0 0 -1
106 1 3.8212125322708621e+00 5.3647692831747049e+00 2.0762188373823948e-02 0 0 0
107 1 3.8633357895341720e+00 4.6169688107235531e+00 7.5252668035360915e-01 0 0 0
108 1 3.0483396358972725e+00 5.4564211467534971e+00 7.8312461381056486e-01 0 0 0
109 1 4.5310968716760165e+00 4.5750890048932957e+00 1.7039968287418696e-02 0 0 0
110 1 5.3650612807133875e+00 5.3327557626022797e+00 1.2243778263912306e+01 0 0 -1
111 1 5.3336924683325595e+00 4.6321602475011128e+00 7.7442192930343268e-01 0 0 0
112 1 4.5785995949215286e+00 5.3527044592703916e+00 7.7902211950468914e-01 0 0 0
113 1 6.1496142618867902e+00 4.5540903354082909e+00 1.2262391664618649e+01 0 0 -1
114 1 6.8465136645095912e+00 5.2785433590696824e+00 4.6640540087250229e-02 0 0 0
115 1 6.8511939018371750e+00 4.5164983989481140e+00 7.4080077506889930e-01 0 0 0
116 1 6.1282387175952966e+00 5.2532869930162711e+00 7.4234153150196680e-01 0 0 0
117 1 7.6242018402768092e+00 4.6069690626292532e+00 2.5540870492091632e-02 0 0 0
118 1 8.4685013102275928e+00 5.3812627059453675e+00 1.2241358142516145e+01 0 0 -1
119 1 8.4120743115425238e+00 4.6483696701849011e+00 7.5997885027653311e-01 0 0 0
120 1 7.6288806750556315e+00 5.3729036133342447e+00 6.8308698882721353e-01 0 0 0
121 1 9.2162236421371002e+00 4.5729332612706379e+00 1.2289904997537452e+01 0 0 -1
122 1 9.9534316884048000e+00 5.3293216690130114e+00 1.4770830589907823e-02 0 0 0
123 1 1.0063633424249549e+01 4.6493292430888280e+00 8.1548273388331904e-01 0 0 0
124 1 9.1842428104992813e+00 5.3408862948800113e+00 7.5717176890936999e-01 0 0 0
125 1 1.0744460596299776e+01 4.6835408057561727e+00 1.2285832531196423e+01 0 0 -1
126 1 1.1580217760606534e+01 5.3435985144337952e+00 1.2300340721444032e+01 0 0 -1
127 1 1.1611808094003868e+01 4.6695249371542760e+00 7.4934923229621897e-01 0 0 0
128 1 1.0853653833696635e+01 5.4340612733004789e+00 7.8417843938822063e-01 0 0 0
129 1 1.2246304578967420e+01 6.1666534216477613e+00 1.2289730846197942e+01 -1 0 -1
130 1 6.8507262748344522e-01 6.9473058813649011e+00 1.2263447496106471e+01 0 0 -1
131 1 8.2722811984333267e-01 6.2318504251654891e+00 7.2677713050021964e-01 0 0 0
132 1 3.9283679316948518e-02 6.9032524480696607e+00 8.7329220046082467e-01 0 0 0
133 1 1.5026302192790364e+00 6.2253272472250467e+00 1.2262250822847989e+01 0 0 -1
134 1 2.3361284919260492e+00 6.8973466821285223e+00 1.2297411855476216e+01 0 0 -1
135 1 2.3494377822476662e+00 6.2155811797830207e+00 7.7049648237309598e-01 0 0 0
136 1 1.5923278035061024e+00 6.9345005452201391e+00 7.6278632121865542e-01 0 0 0
137 1 3.1132761466004957e+00 6.1894339939790761e+00 1.2230460121772968e+01 0 0 -1
138 1 3.8730128481714883e+00 6.8747884831323862e+00 1.2285261799391460e+01 0 0 -1
139 1 3.8120024455598953e+00 6.1375641043348503e+00 6.8764118617258752e-01 0 0 0
140 1 3.1003405814945184e+00 6.9820319070083574e+00 8.0444261222482860e-01 0 0 0
141 1 4.5444828983108740e+00 6.1677930629037920e+00 9.0405937321019324e-03 0 0 0
142 1 5.3756591486521792e+00 6.9056228637064958e+00 1.2239054091671054e+01 0 0 -1
143 1 5.3669549671512753e+00 6.1649404484752806e+00 7.8487883989098262e-01 0 0 0
144 1 4.5749192703062169e+00 6.9010408699177672e+00 6.8052533177805485e-01 0 0 0
145 1 6.0488878893327778e+00 6.1786371198211079e+00 5.9090838963099636e-03 0 0 0
146 1 6.8658293161469848e+00 6.9495268929828411e+00 1.2274186129943455e+01 0 0 -1
147 1 6.8799047486268314e+00 6.2022202522090293e+00 7.5864689018905518e-01 0 0 0
148 1 6.0714612154882435e+00 6.9491576339583974e+00 7.4126573427115550e-01 0 0 0
149 1 7.6307535221191962e+00 6.1350850753839410e+00 4.4951888179987215e-02 0 0 0
150 1 8.4054205763932099e+00 6.9547225902239660e+00 2.3418552835753587e-02 0 0 0
151 1 8.4231555242737759e+00 6.1303357079277436e+00 7.1510356145123499e-01 0 0 0
152 1 7.6377037897523685e+00 6.9164536739030780e+00 7.3763437244082908e-01 0 0 0
153 1 9.2332684886027465e+00 6.1861113538173829e+00 1.2295426766821532e+01 0 0 -1
154 1 1.0100519953242250e+01 6.9154556246353174e+00 1.2244359875129341e+01 0 0 -1
155 1 9.9782925313864048e+00 6.0924712183621184e+00 7.2712502693280923e-01 0 0 0
156 1 9.2128587395403816e+00 6.9309501180231132e+00 7.2503816922667885e-01 0 0 0
157 1 1.0842635084540140e+01 6.1225662299017971e+00 4.1122351723170615e-02 0 0 0
158 1 1.1577885968970627e+01 6.9647377392181475e+00 1.2264257577375471e+01 0 0 -1
159 1 1.1601695010686283e+01 6.1989734486353738e+00 7.5544750557518026e-01 0 0 0
160 1 1.0835740982257040e+01 6.9234982804206755e+00 7.7043185358829591e-01 0 0 0
161 1 7.1059647009036266e-04 7.7257102083030142e+00 1.2260727968162682e+01 0 0 -1
162 1 7.9223765729899376e-01 8.4599335644099103e+00 1.2244444231372430e+01 0 0 -1
163 1 7.6077238474880360e-01 7.6290559040532555e+00 8.3757938803578025e-01 0 0 0
164 1 1.2295688781165660e+01 8.4319255875495820e+00 7.8844811959824723e-01 -1 0 0
165 1 1.6314761999597187e+00 7.6543530400161419e+00 1.2224451629983147e+01 0 0 -1
166 1 2.3433872488680394e+00 8.5316980883419991e+00 1.2244013874760526e+01 0 0 -1
167 1 2.3461327552640694e+00 7.6510602640305345e+00 7.4172632651986159e-01 0 0 0
168 1 1.5731800848347479e+00 8.4580627029208983e+00 6.6833143173855947e-01 0 0 0
169 1 3.1240795085630304e+00 7.6121563414922493e+00 1.2267751918690619e+01 0 0 -1
170 1 3.8308760548746972e+00 8.3877279487465710e+00 5.1431937800711244e-02 0 0 0
171 1 3.8249588772188505e+00 7.6867806983009226e+00 7.3104781199573077e-01 0 0 0
172 1 3.0279569175712377e+00 8.3777391801064525e+00 7.3039404282853881e-01 0 0 0
173 1 4.6059038912535053e+00 7.6836948891785166e+00 2.3228883740071378e-02 0 0 0
174 1 5.3766997489671065e+00 8.5299319821000612e+00 1.2224415423958368e+01 0 0 -1
175 1 5.3076939283044098e+00 7.6650970904776869e+00 7.0777207286192823e-01 0 0 0
176 1 4.6485847000716083e+00 8.5105815187348028e+00 7.1028984760307867e-01 0 0 0
177 1 6.1158512108338101e+00 7.7002458548865560e+00 1.2235203495011300e+01 0 0 -1
178 1 6.9337102600957410e+00 8.5107879836687701e+00 3.3674173613890433e-02 0 0 0
179 1 6.9334342622807261e+00 7.6950407251513901e+00 6.7553138831924542e-01 0 0 0
180 1 6.1347224827955733e+00 8.4925464231695997e+00 6.8731579095082251e-01 0 0 0
181 1 7.7307220438879991e+00 7.7038693372540479e+00 1.2216250393162809e+01 0 0 -1
182 1 8.5411610609915645e+00 8.5435852881195089e+00 1.2287017673223010e+01 0 0 -1
183 1 8.5123737655411684e+00 7.7311411741419382e+00 7.5938679306214418e-01 0 0 0
184 1 7.7271288490330923e+00 8.4491482762012993e+00 7.6233667062573007e-01 0 0 0
185 1 9.2261100557178182e+00 7.7104318470018214e+00 1.2285156300126053e+01 0 0 -1
186 1 1.0009293580176093e+01 8.5076831249071958e+00 1.2275543184281238e+01 0 0 -1
187 1 9.9984325192379693e+00 7.6148167554375066e+00 7.1198392516647557e-01 0 0 0
188 1 9.2899524926391237e+00 8.4699883853852711e+00 6.8910730664984976e-01 0 0 0
189 1 1.0821649210419185e+01 7.7019742228527326e+00 2.6372050839303565e-02 0 0 0
190 1 1.1607276178576779e+01 8.5017706606322800e+00 1.2260861417538925e+01 0 0 -1
191 1 1.1602785820807910e+01 7.6914508228614178e+00 8.4037818053176350e-01 0 0 0
192 1 1.0735390741947619e+01 8.4485221020573782e+00 7.5681006896644276e-01 0 0 0
193 1 2.5088079230960184e-02 9.1864005120667755e+00 1.9203816063238187e-03 0 0 0
194 1 6.4782093576942323e-01 1.0012336067975072e+01 1.2277386329025315e+01 0 0 -1
195 1 7.5522610324149730e-01 9.2671700787492242e+00 7.1447663044118259e-01 0 0 0
196 1 1.2299588427961469e+01 9.9597583308915993e+00 8.3748308651132453e-01 -1 0 0
197 1 1.6070921423389426e+00 9.2104959219337150e+00 4.6021424545658773e-02 0 0 0
198 1 2.3135353066402189e+00 1.0002931880154490e+01 2.9581325663675127e-02 0 0 0
199 1 2.3347600567291540e+00 9.1939751062735926e+00 8.4873397781525006e-01 0 0 0
200 1 1.5362546208710273e+00 9.9697749427048272e+00 7.5828403209112838e-01 0 0 0
201 1 3.0652907798017277e+00 9.2690118795828731e+00 5.2641522540670477e-02 0 0 0
202 1 3.8980621020091846e+00 1.0039802957329364e+01 3.7593917300121883e-02 0 0 0
203 1 3.8313134877312907e+00 9.1960287412526522e+00 7.2881639628711681e-01 0 0 0
204 1 3.1080379799880089e+00 9.9761307742793210e+00 7.6291165096604208e-01 0 0 0
205 1 4.6415599016043823e+00 9.2920588696492494e+00 1.2286178069814911e+01 0 0 -1
206 1 5.3998178469821729e+00 1.0076793855624169e+01 1.2182623281224792e+01 0 0 -1
207 1 5.4008083397157396e+00 9.2764244094668005e+00 8.0252824451563776e-01 0 0 0
208 1 4.6842174356015818e+00 1.0001081482646221e+01 7.0365539821876977e-01 0 0 0
209 1 6.0740729022847857e+00 9.2943296795421340e+00 1.2271146509691127e+01 0 0 -1
210 1 6.8683544722856933e+00 9.9722363618232812e+00 4.7058111569166575e-02 0 0 0
211 1 6.9369882465262753e+00 9.1882156433901940e+00 7.4932515276968503e-01 0 0 0
212 1 6.1375662082144524e+00 1.0029618820891375e+01 7.8037084518830346e-01 0 0 0
213 1 7.7565653934299048e+00 9.2414063584520374e+00 5.6416089980091864e-02 0 0 0
214 1 8.5686555617743512e+00 1.0138980337255378e+01 4.2490153873209292e-02 0 0 0
215 1 8.4218603939938834e+00 9.2566077540206635e+00 8.4027921784297421e-01 0 0 0
216 1 7.6685414403644954e+00 1.0004589638646324e+01 7.1891669289126525e-01 0 0 0
217 1 9.2594128094288184e+00 9.3320650910639493e+00 1.2298800260472159e+01 0 0 -1
218 1 1.0006262370914930e+01 1.0120478872732633e+01 1.2258293047595243e+01 0 0 -1
219 1 1.0047398422209756e+01 9.2879849490035209e+00 7.7164324709333698e-01 0 0 0
220 1 9.2158161613049661e+00 9.9651902521823299e+00 7.8995625759504529e-01 0 0 0
221 1 1.0798224522617934e+01 9.2629172791481196e+00 1.2262593567660137e+01 0 0 -1
222 1 1.1494567312603033e+01 9.9469863295594525e+00 6.6874418145367075e-04 0 0 0
223 1 1.1603099265130282e+01 9.2249721065217862e+00 7.8044982994019196e-01 0 0 0
224 1 1.0778344979370825e+01 9.9797205716361308e+00 7.4992296945716619e-01 0 0 0
225 1 1.2244550785153010e+01 1.0799108283145012e+01 1.2261965548413778e+01 -1 0 -1
226 1 7.1952777195165551e-01 1.1617344093687835e+01 2.5335556172038716e-03 0 0 0
227 1 7.6662121189748811e-01 1.0700858620417007e+01 7.4861700380884089e-01 0 0 0
228 1 1.2288130984449651e+01 1.1462563449251723e+01 7.5393433752498284e-01 -1 0 0
229 1 1.5500206318796110e+00 1.0815906881479169e+01 5.7181338781635477e-02 0 0 0
230 1 2.3943242586335365e+00 1.1589456500870732e+01 6.6432025620201202e-02 0 0 0
231 1 2.2926193979914959e+00 1.0713843361762557e+01 8.4951210546119382e-01 0 0 0
232 1 1.5369904168484960e+00 1.1598735483346251e+01 7.5498341765135668e-01 0 0 0
233 1 3.1296647719086779e+00 1.0775739719302958e+01 5.5124836626314275e-02 0 0 0
234 1 3.8207794171082883e+00 1.1541699102796088e+01 4.9383623484703952e-02 0 0 0
235 1 3.8623235141119836e+00 1.0821255707243663e+01 7.4862302070416198e-01 0 0 0
236 1 3.1310582799461133e+00 1.1574398890489789e+01 8.1644555035226507e-01 0 0 0
237 1 4.6341735973701281e+00 1.0764991948165649e+01 1.2270957472835837e+01 0 0 -1
238 1 5.4066504475851129e+00 1.1519508694348458e+01 3.2632799597581773e-02 0 0 0
239 1 5.4580529335134909e+00 1.0757163632051242e+01 7.0531052214088652e-01 0 0 0
240 1 4.6583512250421579e+00 1.1469725760706599e+01 7.9925529871085810e-01 0 0 0
241 1 6.2493625496870493e+00 1.0789521275674570e+01 1.2300440158874714e+01 0 0 -1
242 1 6.8638372238864092e+00 1.1620389694790502e+01 1.6942617871457402e-01 0 0 0
243 1 6.9097830159868066e+00 1.0768767585136089e+01 8.2716878246960146e-01 0 0 0
244 1 6.1580814972813869e+00 1.1494714488066750e+01 9.0287253269767820e-01 0 0 0
245 1 7.6295651429195877e+00 1.0815895038577978e+01 2.2504752048736362e-02 0 0 0
246 1 8.4842202461520202e+00 1.1501811823266921e+01 8.2850044791704311e-02 0 0 0
247 1 8.4763353384920066e+00 1.0766113009661915e+01 8.2084517179424599e-01 0 0 0
248 1 7.7316581024051088e+00 1.1501092088374159e+01 8.3672381142531449e-01 0 0 0
249 1 9.2854677718540017e+00 1.0919721812368275e+01 1.2246908996230781e+01 0 0 -1
250 1 1.0045411707902348e+01 1.1555589685292263e+01 1.2291953096030959e+01 0 0 -1
251 1 1.0047410840633232e+01 1.0723943518904516e+01 7.9269566265012936e-01 0 0 0
252 1 9.2650168171044474e+00 1.1560589439212166e+01 8.1776967039480630e-01 0 0 0
253 1 1.0797697685476896e+01 1.0741593636937056e+01 1.2257009445795251e+01 0 0 -1
254 1 1.1494667069588267e+01 1.1596761792233616e+01 1.2282832766592541e+01 0 0 -1
255 1 1.1555055977977117e+01 1.0787975956130760e+01 7.4468530509497310e-01 0 0 0
256 1 1.0760274933403762e+01 1.1522336068318026e+01 7.5780249112539666e-01 0 0 0
257 1 1.2258793943163941e+01 1.2271707587484455e+01 1.5086191168299552e+00 -1 -1 0
258 1 7.3768476751816803e-01 7.5426330461660185e-01 1.5199862324754247e+00 0 0 0
259 1 7.7853030946413304e-01 1.2272085567294910e+01 2.2174220702832406e+00 0 -1 0
260 1 1.2257453943312679e+01 8.4092255675281025e-01 2.2944913299288392e+00 -1 0 0
261 1 1.6090557260670570e+00 1.3938658685819566e-02 1.5202135587885952e+00 0 0 0
262 1 2.3226017935190595e+00 8.2709821652385718e-01 1.4707497931711557e+00 0 0 0
263 1 2.3337400704996401e+00 5.0209955659307227e-02 2.2771686291562774e+00 0 0 0
264 1 1.5263802908396771e+00 7.9231782779487070e-01 2.3517679166518253e+00 0 0 0
265 1 3.0879819922827179e+00 1.2243465147657776e+01 1.5997117781894024e+00 0 -1 0
266 1 3.8329636863837417e+00 7.7925279089957800e-01 1.5962431131580370e+00 0 0 0
267 1 3.8930288351336677e+00 1.2228558938196061e+01 2.3407216049870643e+00 0 -1 0
268 1 3.1237836868871702e+00 7.1206231798891684e-01 2.3119318502883357e+00 0 0 0
269 1 4.6967317971802096e+00 1.2231727283006720e+01 1.6311841340954778e+00 0 -1 0
270 1 5.3823605858482235e+00 7.8448874890218379e-01 1.4424205040153613e+00 0 0 0
271 1 5.4287856476982865e+00 5.2597836135752238e-02 2.3885502227237838e+00 0 0 0
272 1 4.5847529973180583e+00 7.2037620900970689e-01 2.3253835152970153e+00 0 0 0
273 1 6.1834874061922491e+00 1.2270053546161781e+01 1.5916360437791104e+00 0 -1 0
274 1 6.9627253252486137e+00 7.3251390046803511e-01 1.5874537709619052e+00 0 0 0
275 1 6.8955606878583104e+00 1.2285045618732147e+01 2.3124600669859232e+00 0 -1 0
276 1 6.1179547632122429e+00 8.3661455477535718e-01 2.2901828769724282e+00 0 0 0
277 1 7.7608319218914339e+00 4.7166017196664412e-02 1.5541632349870522e+00 0 0 0
278 1 8.4999980891842650e+00 8.1765514617498058e-01 1.5329564669782811e+00 0 0 0
279 1 8.4112565262271897e+00 4.0065565131084162e-02 2.3507437070092765e+00 0 0 0
280 1 7.6746323254934365e+00 7.5036476908155991e-01 2.2683530486702894e+00 0 0 0
281 1 9.0823579295491026e+00 3.5411866373764644e-02 1.4699984448305372e+00 0 0 0
282 1 9.9533266120993478e+00 6.9730641646079916e-01 1.5493007560920504e+00 0 0 0
283 1 9.9312111551133686e+00 1.2251823616268419e+01 2.3480729337009065e+00 0 -1 0
284 1 9.2682989967136127e+00 8.3359559182764020e-01 2.3257055591668334e+00 0 0 0
285 1 1.0719500965209358e+01 2.6044687325556242e-02 1.4994900961104445e+00 0 0 0
286 1 1.1588952395846947e+01 8.2238058911128997e-01 1.4813523515654607e+00 0 0 0
287 1 1.1506777047957829e+01 1.2286118592367957e+01 2.3074642242910981e+00 0 -1 0
288 1 1.0767011706829615e+01 7.2723868427819982e-01 2.2583185313584351e+00 0 0 0
289 1 1.7592609335960071e-02 1.4816171744035720e+00 1.4812712326621329e+00 0 0 0
290 1 7.8079350700055261e-01 2.2880273155541624e+00 1.5348234016699638e+00 0 0 0
291 1 7.8674230912016219e-01 1.4992565667988167e+00 2.2873576019455695e+00 0 0 0
292 1 2.0066642002517954e-02 2.2061297975073462e+00 2.2976085793486614e+00 0 0 0
293 1 1.5245557945123056e+00 1.5622422095524844e+00 1.4827397479902038e+00 0 0 0
294 1 2.3059734763791688e+00 2.1969965482764553e+00 1.5893585189566448e+00 0 0 0
295 1 2.3802441777757246e+00 1.4658637316815570e+00 2.3022949981414422e+00 0 0 0
296 1 1.4842151327983004e+00 2.2727494934348322e+00 2.3137289497220350e+00 0 0 0
297 1 3.1352253627254654e+00 1.5407088873350796e+00 1.5892406585492498e+00 0 0 0
298 1 3.9095424949806588e+00 2.3105331333731325e+00 1.5429156338456169e+00 0 0 0
299 1 3.8610812386527833e+00 1.5407721883694407e+00 2.2558800091232922e+00 0 0 0
300 1 3.0550577984047069e+00 2.2566733488305384e+00 2.3897454700368423e+00 0 0 0
301 1 4.6161062366968642e+00 1.5228673484107187e+00 1.5788722037302865e+00 0 0 0
302 1 5.3831189495199947e+00 2.3300773784140105e+00 1.5887673922813681e+00 0 0 0
303 1 5.3505941257984215e+00 1.5678123141823297e+00 2.2944804615650072e+00 0 0 0
304 1 4.6430388284535047e+00 2.3333303764607902e+00 2.3445812134539916e+00 0 0 0
305 1 6.2115336136754120e+00 1.5631353213033148e+00 1.4703829532945338e+00 0 0 0
306 1 6.9864174549913614e+00 2.3248098710072309e+00 1.4824296440921119e+00 0 0 0
307 1 6.9445629298471179e+00 1.5547900472292679e+00 2.3029058020148994e+00 0 0 0
308 1 6.1911636946142847e+00 2.3157888403562583e+00 2.2815019872937770e+00 0 0 0
309 1 7.7388261719281903e+00 1.4967713347874068e+00 1.5581663107526080e+00 0 0 0
310 1 8.5072162947442020e+00 2.3417583382008775e+00 1.6962206344091317e+00 0 0 0
311 1 8.5198503848806570e+00 1.5409640039639791e+00 2.2969910131841500e+00 0 0 0
312 1 7.6626497830533031e+00 2.2682629646863770e+00 2.2471933896880834e+00 0 0 0
313 1 9.2373966323434527e+00 1.6807091939079737e+00 1.5457581880782136e+00 0 0 0
314 1 9.9981984392105510e+00 2.3980102396244556e+00 1.5453434323939426e+00 0 0 0
315 1 9.9807325895560179e+00 1.4866324978576446e+00 2.3233801282318942e+00 0 0 0
316 1 9.2937461459089530e+00 2.3602013237964745e+00 2.3402726153951532e+00 0 0 0
317 1 1.0730515579887991e+01 1.4359259495591659e+00 1.5174882134644323e+00 0 0 0
318 1 1.1479572620542365e+01 2.2063946807617780e+00 1.4856981852628013e+00 0 0 0
319 1 1.1503829640457049e+01 1.4910412705668121e+00 2.2233691780217861e+00 0 0 0
320 1 1.0669210754783359e+01 2.3795060278193567e+00 2.3344096322832857e+00 0 0 0
321 1 1.2260693516331239e+01 3.0575785759201271e+00 1.5073147203450594e+00 -1 0 0
322 1 8.0524148550489205e-01 3.8605734280714046e+00 1.5075447545337035e+00 0 0 0
323 1 7.0548040479972307e-01 3.0680688436513481e+00 2.3490601816057564e+00 0 0 0
324 1 2.8085372232770793e-02 3.8188824847341261e+00 2.2094610727565995e+00 0 0 0
325 1 1.5405416503192713e+00 3.0849243037276710e+00 1.5624356875493330e+00 0 0 0
326 1 2.3452980457522248e+00 3.8712212075307231e+00 1.6255157374500881e+00 0 0 0
327 1 2.3395597437132474e+00 3.0380020099808682e+00 2.3571668220252633e+00 0 0 0
328 1 1.5073435180595449e+00 3.8781213056237300e+00 2.3518273218924888e+00 0 0 0
329 1 3.1080349446916484e+00 3.0488799227612571e+00 1.5812354252367582e+00 0 0 0
330 1 3.9295505996053475e+00 3.7324560054451519e+00 1.5968567006445635e+00 0 0 0
331 1 3.8050977977330640e+00 3.0521449694306817e+00 2.3048022521621485e+00 0 0 0
332 1 3.0761642445883024e+00 3.8367928811941643e+00 2.3569191585785814e+00 0 0 0
333 1 4.6420964607894089e+00 3.0398959713700053e+00 1.6063283934984132e+00 0 0 0
334 1 5.3614636261347748e+00 3.8480525647765593e+00 1.5373073955310028e+00 0 0 0
335 1 5.3987134620342889e+00 3.0881117068597081e+00 2.2908346168664471e+00 0 0 0
336 1 4.6286604681831376e+00 3.8678422184012504e+00 2.3267800653340469e+00 0 0 0
337 1 6.1389420720162740e+00 3.0894696345431805e+00 1.5649958924003624e+00 0 0 0
338 1 6.9424979953550254e+00 3.8304445210334834e+00 1.5093412814664404e+00 0 0 0
339 1 6.9692626200255274e+00 3.0486151934222123e+00 2.2674834408436229e+00 0 0 0
340 1 6.2194559075243365e+00 3.8732414215424789e+00 2.3049728331955497e+00 0 0 0
341 1 7.7109233712208489e+00 3.1766839372702931e+00 1.5096170514209515e+00 0 0 0
342 1 8.4239786105848307e+00 3.9456790158064123e+00 1.5410139632989845e+00 0 0 0
343 1 8.4817442554566238e+00 3.1839037550792897e+00 2.3099539915930851e+00 0 0 0
344 1 7.6729171750971847e+00 3.8460511255860372e+00 2.3037296153573732e+00 0 0 0
345 1 9.2114458582404097e+00 3.1957854465424931e+00 1.5235815349586512e+00 0 0 0
346 1 1.0026043094151458e+01 3.9412679904119723e+00 1.5320126888412473e+00 0 0 0
347 1 9.9681437563456576e+00 3.1328474734386380e+00 2.2940650263398208e+00 0 0 0
348 1 9.2302683839938098e+00 3.9738030801403839e+00 2.3468095427426077e+00 0 0 0
349 1 1.0802013587733214e+01 3.0254152794348372e+00 1.5477399883836374e+00 0 0 0
350 1 1.1600663338073511e+01 3.8319870221519410e+00 1.5503244995274124e+00 0 0 0
351 1 1.1451578351842226e+01 3.1236368921767688e+00 2.3359210044081871e+00 0 0 0
352 1 1.0748499538321568e+01 3.8440881249186281e+00 2.3660018405271650e+00 0 0 0
353 1 2.2069995318420181e-02 4.5924670586558376e+00 1.5605247453969289e+00 0 0 0
354 1 8.0562419657629547e-01 5.3945641651301086e+00 1.5035998481088912e+00 0 0 0
355 1 8.6817531396425296e-01 4.6004760446320052e+00 2.2733520732746642e+00 0 0 0
356 1 3.8773979115899880e-02 5.3248885452289576e+00 2.3472544429229978e+00 0 0 0
357 1 1.5910314900009597e+00 4.6655926775093262e+00 1.5534627967721095e+00 0 0 0
358 1 2.4014695352570987e+00 5.3349982699623144e+00 1.5666170052162596e+00 0 0 0
359 1 2.3507445414511978e+00 4.6020638499127919e+00 2.4512340160353703e+00 0 0 0
360 1 1.6148457502374669e+00 5.2803203526255054e+00 2.3291026395374166e+00 0 0 0
361 1 3.1600951298040170e+00 4.6625456836678536e+00 1.5490529992890272e+00 0 0 0
362 1 3.8044288172877452e+00 5.4212340274599473e+00 1.5888290996266337e+00 0 0 0
363 1 3.8005569324727557e+00 4.6188049957639965e+00 2.3073895507816107e+00 0 0 0
364 1 3.0881121145225401e+00 5.3492266679903278e+00 2.3245867999143921e+00 0 0 0
365 1 4.6141634323995504e+00 4.5888436693070265e+00 1.5749498395073265e+00 0 0 0
366 1 5.3352461113878720e+00 5.3847403515537344e+00 1.5653509300953763e+00 0 0 0