LAMMPS data file via write_data, version 31 Mar 2017, timestep = 800000

2048 atoms
1 atom types

-1.8788478201050740e-01 1.2489980137760860e+01 xlo xhi
-1.4593683340174778e+01 2.6895778697444015e+01 ylo yhi
3.7095723504334903e+00 8.5925230068234768e+00 zlo zhi
2.0207863673454698e+00 -4.3243483424162070e+00 6.1364538227008874e+00 xy xz yz

Masses

1 1

Atoms # atomic

1033 1 1.0890586846041472e-01 4.2387785765846431e+00 7.5655530415130974e+00 1 4 -9
383 1 7.1788905540056982e+00 2.7186626881434663e+01 7.5613820103658611e+00 8 7 -10
267 1 1.1304099102645541e+01 2.0649260046814994e+01 6.6419887061911718e+00 4 -4 1
1868 1 1.1003094702815030e+01 2.7727092922812588e+01 5.5249948639876258e+00 1 2 -6
457 1 6.5538699566043785e+00 2.6699187576750127e+01 4.0519317550652199e+00 -5 0 2
715 1 3.4640607868199385e+00 5.6420525228989611e+00 5.5914509931899357e+00 -2 0 -3
190 1 9.9006999412338725e-01 -3.4550206811990343e+00 7.3763500882017823e+00 5 2 6
1407 1 2.1042874408770689e+00 -3.7593478068246675e+00 6.3665365395933016e+00 6 7 0
1059 1 5.1439456547602136e+00 1.4740478591757231e+01 7.0125472694878770e+00 5 2 -8
1812 1 9.0486836680760021e+00 3.1973767078748523e+00 6.6476302513307104e+00 1 0 -4
671 1 -1.2860825210519939e+00 -3.8025105796207477e+00 8.3073122038161653e+00 9 5 -1
85 1 6.9663226675585816e+00 2.1734356500368136e+01 5.1101050267271226e+00 8 5 -6
1339 1 7.4595718615579676e+00 2.8823779676666859e+01 7.0111163096754829e+00 -6 -2 3
1799 1 7.8546341948316014e+00 -8.7298982947276507e+00 3.9579461886502738e+00 3 3 3
465 1 3.1226028111765713e+00 1.0582917410789836e+00 6.9321308635874681e+00 -4 -7 2
378 1 7.0103312941666285e-01 3.7523114375649449e+00 4.7273606714672116e+00 7 7 -7
1925 1 1.2378315588852087e+00 -1.2752283226744332e+00 6.7210539351410841e+00 -5 3 -20
779 1 1.1155966941362085e+01 -9.8296249698106664e-01 4.6735113228988601e+00 9 7 -7
912 1 1.7227347148783734e+00 -1.0509024890381800e+01 3.9117165479878113e+00 9 1 12
938 1 -3.2327734053655890e+00 -2.8418890821923455e+00 8.5262462478138215e+00 -2 -1 0
1064 1 7.3839539593276866e+00 7.6024759631987990e+00 6.5112523627022671e+00 5 2 0
1198 1 8.2700821887761600e-01 -7.2901905770299837e+00 4.8818767526913094e+00 10 10 -1
1169 1 -3.9280047402681761e-01 1.8541740113454722e+01 8.3141867430216347e+00 -13 -9 6
518 1 4.9848896277197801e+00 3.6131084398177578e+00 6.2412893782550585e+00 2 4 -5
1613 1 3.7095428319990496e+00 2.5104918248905719e+01 6.0455569244740843e+00 -8 -10 6
308 1 5.6360774277522916e+00 2.6356520134791367e+01 6.2077976925943554e+00 15 3 8
1549 1 7.0726595570409474e+00 7.9598126607733022e+00 4.6932300095751778e+00 -5 -1 -8
37 1 7.8266750372753267e+00 1.4958142836024720e+01 7.1591911693540489e+00 -2 1 -2
1462 1 6.8366709765606659e+00 5.9937725654872338e+00 4.7972896899081139e+00 -4 -7 3
1477 1 1.0876548274796544e+01 1.8696388852280059e+01 5.3290681694380408e+00 13 9 -8
189 1 9.6162182238361105e+00 1.1689293178358344e+01 6.5335753003497086e+00 -5 -6 12
1887 1 2.0529046858413613e+00 -8.4154248898213240e+00 6.2538700608655828e+00 7 1 7
1279 1 1.0396212427913348e+01 1.6739853096937217e+01 5.2417576815931390e+00 7 -1 12
1125 1 7.5835543840136390e+00 1.8515572510417542e+01 8.3556763379917847e+00 -2 0 -2
1944 1 6.3786364696137481e+00 -2.8828279844605387e+00 4.3467566097097583e+00 5 5 -9
1136 1 7.1797118204027024e+00 -2.3410504820350617e+00 4.0371284051574374e+00 6 2 2
691 1 8.5319586590297121e+00 1.6943214351454827e+01 4.2983369931840381e+00 1 -2 5
361 1 3.3880817188095573e+00 2.6013789705196601e+01 5.6944859994354218e+00 -5 -5 -2
1275 1 -2.4835128197260170e-01 -2.0654365822144705e+00 7.4829942680728934e+00 1 -2 -6
1593 1 4.6415501426152810e+00 1.9679296436219076e+01 4.2404559690024168e+00 5 2 1
7 1 3.2590685118056104e+00 2.7120654274230375e+01 5.3732639585819886e+00 -8 -6 -2
1679 1 -1.2308718038956012e-01 1.5471884171947043e+01 5.6939773004923948e+00 -1 2 -11
1441 1 5.3535637549819244e+00 -3.0657968126020823e+00 4.1678116844431150e+00 2 1 -3
90 1 2.7559765714051605e+00 1.5025773902377722e+01 8.1303140264628038e+00 -4 -2 -2
1546 1 -1.7798733227556491e+00 4.9070627101119300e+00 7.1804813753883643e+00 16 7 1
1460 1 6.3804342420680280e+00 3.0514905712754576e+01 8.4918055639020498e+00 2 -4 9
1185 1 -2.3810243217881104e+00 1.0243908767600825e+01 7.9710393279498124e+00 -1 0 0
1995 1 1.0347801107878343e+01 1.6072049360366936e+01 6.8813108437565678e+00 5 0 14
314 1 -9.4066193859722480e-01 -8.7254702877292125e+00 5.8118600568258865e+00 1 2 5
486 1 6.8766750340620959e+00 2.5580266600590519e+01 4.7951840750736441e+00 12 8 0
973 1 2.7577586696126257e+00 -1.1338299152288652e+01 3.9191707827640005e+00 5 3 -2
1875 1 6.8782524045974265e+00 2.5501938902303543e+01 6.5731678205528450e+00 -8 -7 5
483 1 5.4178543803750712e+00 4.7023309345721458e+00 4.4031690203085825e+00 0 -2 6
1889 1 6.0258035987042300e+00 1.1517462818712310e+01 4.5751718096591691e+00 -4 -2 2
490 1 2.4759202871174653e+00 1.9297820616690203e+01 5.7055124440701848e+00 6 2 -7
667 1 -9.7947091305160772e-01 2.5507409885658760e+01 7.9026239168227672e+00 -1 -1 -2
818 1 3.0264494621520521e+00 -3.9775258777820142e+00 5.8619425937759289e+00 -4 -2 -1
1453 1 4.3759948902279788e+00 1.0331466390355594e+01 7.0987833329124284e+00 -9 -4 -5
57 1 2.8675376290988002e+00 -1.4414060081134572e-01 5.3775366307404591e+00 -5 -6 6
603 1 3.5356219883805275e+00 1.5693164311695284e+01 7.4700302084694759e+00 10 4 1
940 1 5.2417096625030934e+00 1.9998990165027827e+01 6.2929547336523850e+00 1 -2 7
241 1 2.8144362056372136e+00 3.1108835228464002e+00 7.2346149047000541e+00 -1 -1 7
1404 1 3.6853124381540705e+00 1.5687519830436461e+01 5.8251988263313654e+00 11 6 -3
1399 1 6.0420232081417868e+00 1.0047646151209946e+01 4.5155548530771679e+00 -4 -8 7
328 1 5.4703125519491378e+00 2.5141360073663776e+01 4.2541799236625790e+00 7 8 -3
968 1 -2.5252690194011973e-01 5.0159510318728238e+00 5.6425936623437840e+00 15 4 13
674 1 3.2389279152810002e+00 1.6608854544647649e+01 7.0114533281020277e+00 1 -1 0
758 1 8.7928283810597101e+00 8.1781048329153130e+00 5.9564316989747326e+00 2 -3 -2
98 1 1.0295748974323622e+01 1.0703333435781865e+01 6.8753579375271796e+00 9 6 -6
1374 1 2.9538720305217927e+00 2.6465948184015694e+01 4.7161876561360945e+00 -11 -11 9
1698 1 5.6985369460077324e+00 1.4728078013357425e+01 5.3566908546269261e+00 3 2 10
767 1 5.1668636240605705e+00 2.4761976915468935e+00 7.1573954758602989e+00 4 1 6
614 1 5.1955724382573658e+00 2.2446323263292577e+01 6.4083825393449914e+00 2 0 0
1252 1 4.7339841731962871e+00 1.6705922811734979e+00 5.4507801954740840e+00 5 0 12
2044 1 1.4958859927751984e+00 1.2374838601374741e+01 6.1731462532306720e+00 2 5 -6
899 1 7.3483915091372216e+00 1.7960748084609200e+01 5.4860766251368061e+00 0 -1 -5
860 1 1.5964966969632499e-01 9.1180255591185215e+00 6.7342069514264615e+00 10 1 5
578 1 1.0928487601276449e+00 1.7731466504356085e+01 6.9875477136957809e+00 1 -1 3
286 1 5.6661086318463747e+00 1.6430857511794166e+00 4.3330812681722914e+00 -5 -2 -8
806 1 7.3802513414945707e+00 -2.3663660498733741e+00 5.5977557121045525e+00 -4 -1 -9
746 1 9.5689145627214351e+00 1.1784865263108703e+01 5.1165340770131937e+00 4 -1 3
1361 1 3.9921497542174498e+00 3.0163346785430903e+01 8.2101162282236650e+00 5 3 -12
91 1 8.7986106664865815e+00 2.6903774498447007e+01 7.9633006576367027e+00 13 4 3
925 1 1.8722702054406803e+00 1.4223934261380712e+01 7.6240387593861234e+00 3 5 -10
593 1 1.9978272274479822e+00 3.0832275412507471e+01 8.0355877811816434e+00 -6 -6 0
338 1 5.4325979616243325e+00 2.6468339929107344e+01 7.3104034961321602e+00 11 4 12
2009 1 2.7066710387179307e+00 1.9442330057707480e+01 6.6135871419337260e+00 -3 -3 1
39 1 9.6570709185860393e-01 1.8150474372208812e+01 8.1611115299179726e+00 1 6 -13
1135 1 3.7984235272960643e-01 2.6541925590111944e+01 6.2798334382154497e+00 -1 -2 6
442 1 2.1176391319229402e+00 -4.3768809728715929e-01 6.5207509604869482e+00 7 2 -1
205 1 8.6191769108855745e+00 2.5636654719835342e+01 5.1400629663697632e+00 9 5 5
1445 1 4.7207420265356550e+00 -1.1166954062724521e-01 6.4608789603264478e+00 -2 1 -3
1666 1 3.7959295514473004e+00 3.0906861277968034e+01 7.4283433918202855e+00 -8 -9 8
1467 1 1.9904945979191377e+00 -7.8386666290602429e+00 7.2206545573947896e+00 3 3 -5
1541 1 8.3151519798312492e+00 4.7815906233244618e+00 3.7649462912852898e+00 7 -2 5
369 1 8.7220356869162075e-01 -2.4017880656540669e+00 6.1862725857801504e+00 -2 1 6
413 1 5.3936363966664720e+00 -2.8907315062413694e+00 6.5747890742632897e+00 -11 -3 -10
464 1 2.0199308069626363e+00 2.6618713497973530e+01 5.1345228489508896e+00 3 1 -3
1352 1 1.1968709265047938e+01 -1.2202369651782007e+01 4.2473761494013536e+00 8 2 1
1284 1 -1.0064496268638841e+00 -2.9581575613601281e+00 5.5606569616705794e+00 -7 -5 0
1963 1 1.1177790893239845e+01 1.7790679782746096e+01 3.8648912792121606e+00 -4 -1 1
1876 1 3.3774158257316285e+00 2.8146168260400401e+01 5.5114118204703004e+00 -3 -4 1
1330 1 -1.5089495378786602e+00 -2.7440258033482117e+00 6.4077472047027300e+00 -5 -4 3
627 1 2.8846714544911327e+00 -7.3907361618567098e+00 7.5465038648319132e+00 2 0 9
1172 1 -5.0041357665136799e-01 2.8048079156006615e+01 8.0207835465625497e+00 -2 -4 10
137 1 1.8610969863605877e+00 6.9572421561272790e-01 8.5491195044478410e+00 9 4 -3
1723 1 -1.0336598858657093e+00 4.0771737850697569e+00 7.3440653012365011e+00 2 -1 9
682 1 8.8966610282130567e+00 -1.3344383697762115e+01 3.7461863964837065e+00 -2 -2 -2
36 1 3.9482074882093512e+00 3.2211064204365385e+01 8.4547098925451500e+00 -4 0 -3
701 1 3.8546266407215573e+00 1.0911996167203466e+01 4.5965738212291889e+00 -5 -1 -10
407 1 8.6975146153045415e+00 1.2790212539401214e+01 4.0411999594978232e+00 -2 -3 1
1535 1 6.8088528290612693e+00 3.0859070389086511e+00 4.1762503468693968e+00 -3 0 -8
1604 1 8.6066691617913738e-01 -1.1427418964873914e+01 4.8257307966868908e+00 12 3 3
371 1 5.2471186342412324e-01 4.6776553223415220e+00 8.4852585821713475e+00 4 1 9
419 1 -1.5221139474815035e+00 -8.6522862170747068e+00 7.8634044411258301e+00 -8 -5 -3
420 1 9.3861231077224971e+00 -9.5422428517951747e+00 4.9738070978880486e+00 6 3 -3
1560 1 7.7004042921005489e+00 1.2719991554829743e+01 4.8832327180706034e+00 1 0 -6
2001 1 5.9179160394117973e+00 7.6579006900694111e+00 7.7231218716431780e+00 1 3 -12
79 1 2.6353641645761656e+00 -8.3617702344316669e+00 7.7804072152505039e+00 5 1 1
1516 1 3.8719075217892867e+00 2.2769116764370857e+01 8.0026892865670494e+00 5 0 1
1478 1 1.1870143976927672e+01 2.5047573483629002e+01 3.9847192368310531e+00 2 -2 -2
1263 1 -7.9774140229664248e-01 1.3861179290254050e+01 6.7613696109785568e+00 -14 -5 -3
331 1 5.3081403833694996e-01 -4.9389025019662061e+00 4.0041935641207340e+00 -5 -2 2
482 1 3.5276005446231098e+00 -9.1282969076040388e-01 5.3618304922802924e+00 10 4 4
1348 1 1.7106123397292148e+00 2.4496133273939321e+01 8.5405753081344535e+00 -1 -6 4
1672 1 4.5126721712395037e+00 2.0428840827911237e+01 8.2152073930916565e+00 -3 -1 -8
1306 1 7.7667393248532246e+00 2.0081774912342262e+01 5.0798777295297590e+00 -4 -5 5
1770 1 3.6755677755027580e+00 2.1938253420011272e+01 5.9383873093968242e+00 -2 -3 6
1572 1 8.4755294370365952e+00 1.1751307115050711e+01 4.6042168305880748e+00 12 4 7
536 1 5.5518247554951197e+00 1.5422765733965601e+01 7.7107262430762855e+00 0 -3 3
1109 1 6.1031850483319738e+00 -8.0808634768350842e+00 6.5915894719437063e+00 -4 -1 4
890 1 2.3369647671282920e+00 1.6811871495558499e+01 4.6839091185940749e+00 1 -4 8
159 1 7.0665213258664705e-02 -4.3529965543206828e+00 5.2579918085049844e+00 -2 0 -2
124 1 1.5639927727014955e+00 -9.5760248665223138e+00 6.1608375203428025e+00 1 -8 15
1171 1 3.1446036564668263e+00 -1.8514822699598916e+00 7.7851532158144465e+00 0 3 -17
858 1 6.7707714884746570e+00 1.0404157850609003e+01 3.8724628901134603e+00 -4 1 -3
1647 1 5.4313737068155588e+00 4.4176816314940552e+00 5.9966445714772423e+00 1 3 -4
1030 1 6.6888646374280647e-01 2.5761490596089409e+01 6.8566818725176546e+00 0 -5 7
1855 1 3.7996514596741688e+00 2.4053751197141899e+01 5.0005024177240900e+00 2 -3 7
1699 1 4.6862961046337093e-01 2.3348799183246072e+01 7.5647459010831302e+00 1 -2 0
586 1 4.6639290533013842e+00 7.9176936120736876e+00 5.7711176525033068e+00 -1 -5 13
1780 1 3.7176233978212370e+00 1.1560721351691321e+01 5.5395518756523634e+00 3 3 0
918 1 7.3111012807761071e+00 2.5026654038153019e+01 7.3647721057105668e+00 -3 -4 0
1544 1 4.3572333887937882e+00 1.1372965777477152e+01 7.8009817229555622e+00 -5 -2 -2
1221 1 3.5387407268236166e+00 6.5300920453053735e+00 6.2619627366510526e+00 -1 -1 4
1981 1 4.6632528525935779e+00 -8.4801839028513903e-01 5.3608027992365255e+00 2 -1 6
540 1 9.8727248584123437e+00 3.9217137529722379e+00 7.1180187791994642e+00 -3 -3 -1
904 1 1.2513667648293021e+00 1.7251661542987051e+01 6.1003463556917312e+00 -10 -2 2
881 1 8.0025484131287818e+00 3.1660247764796807e+00 5.2331725986254236e+00 0 1 -3
655 1 6.7865205380259619e+00 2.0546255406703104e+01 4.5036487651178616e+00 -13 -8 8
1402 1 -1.6142263651990125e+00 -1.0539030978845641e+01 5.6834407383229699e+00 9 7 -11
1282 1 2.5388586513952491e+00 2.0316494408493440e+01 7.4454690141729509e+00 -2 -6 -1
1751 1 4.7522078385425610e+00 6.1361098560208482e+00 8.2543584080415382e+00 16 11 3
1464 1 9.6224247142854447e-01 3.7668777406327187e+00 5.7580748845243068e+00 -3 -4 -1
1901 1 1.2345194270702806e+00 -1.3472879809793012e+01 3.9507883974388616e+00 -15 -8 -2
1912 1 5.2202331401379327e+00 1.5165621521425532e+01 4.5416793553855861e+00 -1 -1 -4
1508 1 7.3882036438271230e+00 5.2346350813031037e+00 4.4936651021739538e+00 8 4 7
1862 1 1.1755943724972493e+01 1.3844317646268038e+01 5.7257525041689634e+00 -14 -11 3
1409 1 1.3313940537637379e+01 2.6420737169853808e+01 3.8716634022415373e+00 -3 -3 6
2013 1 4.4510336892694911e+00 1.2099827924512333e+01 5.9986559412067919e+00 -9 -7 6
1945 1 7.4269223620815570e+00 2.9200170741039891e+01 5.6913191671737877e+00 5 1 11
692 1 -1.1503491465244164e+00 7.3417313727927862e+00 6.4653090553190431e+00 11 5 -2
140 1 1.3530049458022941e+00 -8.6048510016659066e+00 8.0484157043329443e+00 -6 -2 0
1488 1 8.8976050236775741e+00 1.3702265257456755e+01 5.2728717818193855e+00 4 -2 2
248 1 7.1202270409130728e+00 2.7482049621922556e+01 4.2514399791985982e+00 1 3 -6
699 1 1.0214514733697893e+01 -1.0895219794256553e+01 5.3112844457504256e+00 13 6 -5
1268 1 3.5955912268717323e+00 8.5269053193530127e+00 6.1393164828481126e+00 1 4 -3
1831 1 1.3150660058197090e+00 -1.0282703492482153e+01 5.1439277650501181e+00 1 0 4
351 1 2.4408020577776299e+00 2.9230893968426656e+01 7.3144176886410959e+00 16 5 17
75 1 6.6393727912917253e+00 8.2055170876986203e+00 3.7813211908495141e+00 -9 -5 2
847 1 4.8508886513530207e+00 1.3945177994317710e+01 5.7196210040500741e+00 8 5 -5
1145 1 2.9504959367895189e+00 1.0505348741351551e+01 4.3443514441198712e+00 1 -4 13
1552 1 5.7145906343513113e+00 7.5492195417856252e+00 5.7578948311582554e+00 1 -1 1
1103 1 1.6177360218175627e+00 3.2035808645818946e+00 7.3970675228185705e+00 4 0 8
1194 1 8.0470894960988204e-01 -9.7072873716764061e+00 7.2054573729498230e+00 -10 -7 7
1715 1 3.1648334778368126e+00 1.3786000937741203e+01 4.7946599022131009e+00 5 5 1
879 1 4.5554152333290601e+00 -3.4470536785135781e+00 4.7710332918877274e+00 4 6 -14
53 1 2.8681141001034742e+00 7.6655798232438457e+00 6.9458035638658329e+00 1 3 -5
876 1 2.4514121071520401e+00 1.7275952819324814e+01 8.0337139389008936e+00 -22 -12 2
1595 1 6.5886522328102588e+00 1.6136307703366079e+01 4.3532514653834040e+00 -3 -1 -1
1007 1 2.6471262126500106e+00 1.5150860077491473e+00 6.2699553181066268e+00 0 0 -7
761 1 3.6911885400181359e+00 4.3317603941018490e-01 7.8581953657923904e+00 -7 -8 10
1639 1 1.7933160446100427e+00 2.9940145536841328e+01 7.3637804880138313e+00 0 -2 2
1328 1 5.5381344310423266e+00 -5.3536136268939600e+00 4.5745023128481321e+00 -7 1 -9
270 1 3.0171055463712637e-01 2.4904676941558812e+01 6.4021497745060767e+00 -6 -2 2
133 1 8.9301588712509634e+00 5.4041434050533894e+00 5.9918125933294402e+00 11 4 4
341 1 1.3400841342087562e+00 1.6017372740602514e+01 6.7085336567038283e+00 -7 -1 -5
920 1 4.9404509435849446e+00 5.6197298390511072e+00 5.5323384556468502e+00 0 0 -2
980 1 6.1837203315286748e+00 8.7716994066587759e+00 4.6430202450805194e+00 -10 -7 5
35 1 1.1231011445003967e+00 2.5222351679460949e+01 8.4740949645321155e+00 5 7 -10
180 1 -8.7154637337252905e-01 9.1699077613944979e-01 5.8749378623440052e+00 0 -1 9
684 1 1.0889418590507383e-01 2.5402164592293701e+01 7.7022656592062928e+00 2 -1 4
231 1 6.7456808165812054e+00 6.8383869864375342e+00 6.1720000585938770e+00 -8 -2 -5
1972 1 9.4233884688587679e+00 1.5922455375133936e+01 4.7452635983058364e+00 -2 -2 -2
1355 1 -1.8609546586242454e+00 -3.0301608460943310e+00 8.2609882127533361e+00 -6 -2 -8
1909 1 1.2634992627349494e+01 2.6884842339682685e+01 5.4343053154513967e+00 -7 -5 8
1353 1 9.8717712068162555e+00 -1.9454190320681057e+00 3.8271476241791378e+00 -5 -2 -3
1366 1 4.6553135194590913e+00 1.9352268408021516e+01 7.8621170418441810e+00 -6 -8 10
139 1 1.3792363785341277e+00 -6.8586653914321172e+00 6.0816138112846350e+00 8 0 10
931 1 1.3462667545000755e+00 -1.7514771102279738e+00 5.6875930137197255e+00 -8 -3 -7
1391 1 -2.7047127744769872e-01 5.2256630551663221e+00 7.6395291713484799e+00 5 2 0
1134 1 -8.8503140420815285e-01 1.4153591055256669e+00 6.7875438268196842e+00 -7 -7 6
1386 1 8.7865996563368398e+00 5.0740118182962313e-01 6.4408507256126395e+00 2 -4 8
64 1 1.1630438425714733e+01 -8.9588323278512494e+00 4.8936680983685532e+00 -6 -1 -3
1665 1 2.5869015882863655e+00 2.8223249466750481e+01 7.8496847924650659e+00 3 0 6
373 1 8.1301256125461059e+00 2.4461433454784142e+01 4.5239522033700208e+00 -4 -4 1
1381 1 2.3039772893415456e+00 3.0882323405262390e+01 7.0911275884681224e+00 3 0 -5
848 1 6.9180585566292434e+00 -5.3336641989015234e+00 5.5815536316890570e+00 -8 0 -1
784 1 3.3800638505023857e+00 2.3092943581811276e+01 7.2023665442711584e+00 17 4 10
749 1 -1.9133240885179694e+00 2.0355690954271282e+01 7.5043625437870078e+00 0 -3 2
978 1 3.9429152969241708e+00 2.0741555552028501e+01 6.2669456181472132e+00 9 3 5
1534 1 1.7318312981234985e-01 1.6486130775058971e+01 5.9301713682666737e+00 1 -4 3
1625 1 6.3186949888410320e+00 4.5164543293372503e+00 5.9209471142176664e+00 -9 -6 0
519 1 1.8113820734244963e+00 -9.0248538417762099e+00 7.2644877154778458e+00 -5 4 -21
2002 1 1.3154577925563840e+00 1.5544273213518593e+00 5.2014324834488148e+00 -1 -4 13
274 1 -6.1663730500515035e-01 2.0092043319590069e+01 7.8660966733217936e+00 -3 2 -4
271 1 3.0497530183363595e+00 -1.2176172080390657e-01 6.7852282926781973e+00 -1 2 0
1646 1 1.6876145113055934e+00 -1.1697293052338388e+01 5.9966407461744415e+00 9 5 1
641 1 1.5983879604104798e+00 1.8797705264356992e+01 5.1818176225439325e+00 3 -1 2
2025 1 -1.6890686316569945e+00 -6.2800264044553913e+00 7.9234192736134244e+00 3 -2 8
234 1 6.5461156583994793e+00 5.6846623136147798e+00 6.5747554223396669e+00 -2 -1 -3
484 1 5.5276877739255204e+00 2.7542182035188745e-01 4.1981139010205153e+00 -1 -3 10
1676 1 -3.9347341908632050e-01 2.1072124232929461e+00 6.2207472159181769e+00 0 2 -3
608 1 5.7765651681586272e+00 -5.7882685410972456e-01 6.0093559404285299e+00 8 1 3
1210 1 8.2993729127222471e-01 -8.4761646753861228e+00 4.4963762303834178e+00 9 4 3
1372 1 1.0365662297331287e+01 -5.2616415149218287e+00 6.0126182725673818e+00 -3 0 -2
1313 1 6.1608718875013091e+00 1.2729657942731734e+01 6.7035694671623656e+00 -5 -5 -1
1260 1 -4.6982614273747947e-01 2.3389114454579591e+01 8.1715649893236986e+00 4 6 -11
1955 1 4.4889468906804995e+00 3.1692289345477363e+01 7.6796936931543911e+00 2 1 -5
1787 1 3.1468816812750484e+00 -9.5907817646545599e+00 4.8907706352871241e+00 5 2 7
661 1 7.6749808599190006e+00 2.5622638844856894e+01 5.5293532474679168e+00 7 1 12
1890 1 5.0267493934917136e+00 2.3755365362904506e+01 4.2166786168959582e+00 5 3 3
2039 1 5.2294243761543617e+00 -6.9819542022749204e-02 5.2649399539964010e+00 10 7 0
1183 1 5.3920292747581238e+00 -2.8435193707916682e+00 5.4112251010592676e+00 2 3 1
1991 1 3.2950084825194175e+00 3.0300516094578533e+00 4.4204252327128968e+00 -3 -4 2
1429 1 4.7682883542173577e+00 -7.1786341154972524e+00 5.2660091829767204e+00 -6 -2 -2
197 1 6.8235008898709024e+00 3.2986834918540708e+00 7.0941473892920062e+00 -4 -2 -1
339 1 3.0273034017087932e+00 -7.8363384560463123e+00 6.2305091070468510e+00 -7 2 -9
1101 1 2.6642962058427755e+00 -4.3398413582785587e+00 6.9847197471979303e+00 10 6 0
469 1 2.8217129282682940e+00 -4.9229634464770609e+00 5.0562110329440966e+00 -9 -7 -1
1806 1 4.5487308069400108e+00 -1.2001505527434707e+01 4.8015184225381038e+00 -2 -5 9
239 1 -1.6323910514079198e+00 9.6461642969703050e+00 7.6466402890083547e+00 2 -1 9
1178 1 4.5903132118448395e+00 2.1930111431612829e+01 7.8237165948805742e+00 5 2 -4
789 1 5.2838715121167983e+00 -1.0834009698612483e+01 4.7021395977556795e+00 2 1 0
1002 1 5.0685928119748160e+00 -7.1078967157366435e-01 4.3586068295538691e+00 0 -5 19
290 1 1.9581426713028698e+00 2.3506965619570899e+01 5.0769580479680982e+00 3 -1 9
1777 1 9.5079266153203754e+00 2.1977313360572055e+01 7.5026579946324743e+00 -8 0 -6
1669 1 4.3107932930775350e+00 2.3101486689117536e+01 4.7034892347205224e+00 5 -2 7
1314 1 3.5802203594951174e+00 7.4529896917129648e+00 7.9164923425197422e+00 16 6 3
501 1 4.6844151212657534e+00 2.6178339248273311e+01 3.8310094077454155e+00 0 1 -8
1153 1 1.2826766139917982e+00 -5.5912332488948380e+00 7.4033352460251631e+00 -3 3 -10
1803 1 5.7464020957067330e+00 2.6228580428744642e+01 8.3626611530305954e+00 -5 -6 9
2046 1 4.2026845965699278e-02 -9.3159266737348982e+00 4.5714226305349115e+00 -9 -7 -1
985 1 2.0764935292713682e+00 1.7508472344499360e+01 6.7357818429290690e+00 9 0 10
1340 1 1.5556618347787499e+00 9.2955531323207197e-01 7.5979257980894577e+00 5 4 -9
1204 1 9.3874305034980354e-01 1.3874643385539528e+01 7.4575389846041489e+00 -7 -5 2
786 1 2.4258658775178354e-02 -1.0949737127973849e+01 4.1654311069291845e+00 -9 -3 3
1993 1 6.5670311773539805e+00 2.0661754230049183e+01 6.0901632951646185e+00 -1 -2 -6
122 1 5.9649805327551393e+00 1.5139211184384241e+01 6.3062657760561276e+00 -4 -4 -5
1658 1 7.0518986992361299e+00 -3.5414345842841097e+00 4.3224080849861197e+00 14 8 -6
805 1 -1.5994168186682125e+00 -1.0080738492471724e+01 6.8501191171697613e+00 3 0 1
1262 1 3.4376767090866482e+00 1.7215173720979720e+01 8.0833192570703254e+00 -3 -7 6
630 1 3.3022478164256852e+00 -1.0584905297864633e+01 4.3912807163245198e+00 5 0 4
664 1 2.0975205504483294e+00 3.1196768740022733e+00 8.1897836294644026e+00 -5 -2 -3
1181 1 3.0707469417627897e+00 1.4870861649904128e+01 6.2792527384617483e+00 16 7 6
883 1 1.2637716606038885e+00 -1.2626984679959138e+01 4.5373455584315323e+00 1 2 -5
110 1 2.3793324700752807e+00 1.4195299120584771e+01 5.9340692520929323e+00 -2 -5 7
877 1 2.3950432101645283e+00 9.6074306599027182e+00 4.7349828066108151e+00 9 4 -1
1515 1 4.7329240908874253e+00 2.7059547386233881e+01 6.5697351601979062e+00 2 1 -8
1984 1 2.7047089977970988e+00 2.3727384439009406e+01 6.4136633960468838e+00 -4 -2 -2
1775 1 -1.5108906301578364e+00 3.1995072078056950e+01 8.3692418253910308e+00 -5 -5 5
1584 1 1.5985021829840202e+00 -2.6353245148129947e+00 7.2039496943199870e+00 -11 -5 -2
609 1 -1.0783888804702242e+00 2.8971804952411226e+01 7.8865234751987945e+00 4 -5 12
1940 1 4.9587576255006249e-01 -9.9278290233172584e-01 6.1249852669479719e+00 -3 0 -9
1755 1 7.9286361032250090e+00 -7.1456180815954138e+00 6.2482487621761003e+00 4 4 5
1694 1 5.2177144583945090e+00 -2.0949294452715641e+00 4.6359995805241638e+00 6 1 7
164 1 2.2395429311516066e+00 -1.8845148975573025e+00 6.6752899936696224e+00 -7 -3 -2
370 1 9.4061579353264690e-01 -1.0957197464311040e+01 6.2148754688273655e+00 16 9 8
1010 1 6.0025952020349604e-01 -3.9098876854646587e+00 4.2245798300893886e+00 2 3 -18
1319 1 1.0778664323147704e+00 -7.5904544975171770e+00 7.9649629984395105e+00 -7 -5 8
1608 1 2.1648216300239462e+00 -4.3184839792065386e+00 5.4415070938222048e+00 -2 -3 11
1414 1 1.6060410642727527e+00 1.9792529291195848e+01 7.3386495540726937e+00 4 3 -1
143 1 3.5855246335895696e+00 1.9857389581116706e+01 4.0599816197592880e+00 -4 -1 -5
1978 1 3.8197851547804467e+00 -8.6209280817807645e+00 4.7668530235463287e+00 1 4 -11
916 1 3.4799135788295121e+00 1.2165198981646185e+01 7.5641069249330339e+00 8 1 10
468 1 8.7769482736357318e+00 -4.1374791957220438e+00 5.6451195033160282e+00 -1 -4 8
16 1 3.0091860574038192e+00 2.8494821032781047e+01 6.4032093833979378e+00 11 6 4
436 1 3.5165028142090069e+00 2.6477678537627689e+01 8.5600018775756066e+00 1 0 -7
1611 1 4.9125623396723537e+00 2.1932364373523221e+00 3.8007734938644377e+00 4 4 -3
953 1 3.0934445592273838e+00 3.1081086531687056e+01 8.1279770517488323e+00 -8 -4 -5
1502 1 7.0714971854747537e+00 3.1850029020867829e+00 5.8258291433066747e+00 4 4 -7
295 1 3.1912650696330616e+00 2.5164736689920410e+01 7.9087312191388133e+00 0 0 0
1332 1 3.5140309561069314e+00 -1.9658414917245484e+00 4.8744687235459034e+00 16 6 1
896 1 5.2059158725521861e+00 8.1179947012074933e+00 3.7655392496715181e+00 8 7 -13
1481 1 5.0804852195497485e+00 6.7769396774216659e+00 3.7671728949675036e+00 9 6 -10
550 1 1.2041901367767345e+01 2.3580441438280268e+01 5.5793244115698570e+00 6 6 -3
1900 1 5.5180653655557785e+00 2.7128198918142729e+01 4.0876581340295086e+00 0 3 -11
849 1 8.9277317249725918e+00 2.2266060951108848e+01 5.7960242950127165e+00 -9 -6 2
1630 1 -7.4222277573970485e-02 -1.1844159778122782e+01 5.1370475911947917e+00 2 6 -16
587 1 9.0348679790773789e-01 2.6110044781894146e+01 5.2277683971670914e+00 -7 -8 4
30 1 2.7854100669033999e+00 -6.4812674196266862e+00 5.5170383482833438e+00 -11 -2 -10
358 1 2.7778251847967925e+00 -5.0745360380892457e+00 6.1214183609264348e+00 0 -1 3
960 1 2.3004624121104755e+00 -1.0207517339579027e+01 4.6459841350772333e+00 -5 1 -4
613 1 4.9165471578260531e+00 1.0071216277696600e+01 4.0541507768128717e+00 -8 2 -15
1617 1 7.7262341147108620e+00 6.3095952861982241e+00 5.4303082859329308e+00 -7 -5 3
707 1 3.5214462845965504e+00 -9.6528916765303165e+00 6.2582797460226036e+00 -8 -4 5
174 1 -1.3794879001663816e+00 1.8300182084462705e+01 8.1371373561935183e+00 -15 -11 0
1542 1 1.4470202097332194e+00 2.9556918037921086e+01 8.1110091744667745e+00 3 3 -8
1872 1 7.3617326416893825e+00 1.7074944084100601e+00 4.3541596779659546e+00 -7 -4 2
636 1 7.3003581060422853e+00 1.9461255228648838e+01 3.9342163256327187e+00 10 4 -5
1459 1 4.8091564702605902e+00 5.3777622290354472e+00 7.5218874199645160e+00 1 8 -18
1167 1 1.9169168308995785e+00 -7.5761926999013358e+00 5.4215668345607364e+00 -10 -5 0
1567 1 3.4952128691908646e-01 -1.2045343885232036e+00 7.9772552481575243e+00 -4 -5 5
659 1 4.2234486112772531e+00 1.2003751132878509e+01 4.8620473639743471e+00 -8 0 -18
213 1 5.8396585952225122e+00 2.9668303111883908e+01 8.3053565948370824e+00 11 7 -16
1996 1 4.7022951926122971e+00 -1.1282732055105853e+01 3.9583652623316685e+00 4 1 1
662 1 1.0616289867895222e+01 2.0875701230500859e+01 5.5987302674634396e+00 8 4 7
144 1 1.1845788813765967e+00 1.0038963507899954e+01 4.2856628065305333e+00 -7 -6 1
425 1 1.0384903004644130e+01 1.9428896818025585e+01 4.4211845051105918e+00 -14 -9 10
1315 1 4.9708347495353431e+00 9.4683619909194441e+00 5.2791533317824921e+00 0 -3 -1
277 1 3.3716467346507182e+00 9.5602762067445610e+00 6.4324823042224164e+00 3 -1 7
1222 1 5.2267757907916348e+00 5.9417326810766440e+00 6.5690773721061060e+00 -2 -1 -1
1142 1 3.0085931853914802e+00 -8.8442411795345954e+00 5.7380054064455317e+00 2 -3 9
1982 1 -2.8140343314798244e-01 -7.8382278432261128e+00 7.0977116623344170e+00 8 2 6
1686 1 2.1498772647993034e+00 9.8073790313343139e+00 6.4907230890639021e+00 2 -1 8
1150 1 2.5609048793618370e+00 8.7203942416897320e+00 7.1819425172136206e+00 -1 1 -12
1899 1 3.9181031741286079e+00 -6.0131102639553724e-01 6.1364101929094765e+00 -1 2 -5
506 1 1.6202378347928958e+00 4.5868372396678225e-01 4.6750944627438447e+00 2 -1 10
179 1 1.2714970870243025e+00 -5.2761599277770124e+00 8.3065496403259349e+00 6 1 8
1015 1 5.5886295591392541e+00 2.0338101119463673e+01 5.4039905804399995e+00 7 5 0
1324 1 8.4223159021206051e+00 -5.8625290427360479e+00 3.9740631484454676e+00 4 3 -7
134 1 1.8233783654323004e+00 2.7393226835176677e+01 7.5979801084348484e+00 -9 -4 -1
956 1 9.1305882724374943e-01 3.0386440454997704e+01 8.3381462471108723e+00 7 -3 10
663 1 5.4727153692824428e+00 2.1063027032964705e+01 7.5815375996396828e+00 0 -2 4
1365 1 5.0397521259308675e+00 2.3516988912588310e+01 8.2191098132941711e+00 7 1 6
1063 1 1.0787610273643843e+01 2.3735818930188415e+01 6.8309571273761849e+00 -2 -2 4
1094 1 1.9751157415228078e+00 2.3870291391606983e+01 7.1974869092603324e+00 -3 -1 -2
1790 1 1.7536686801697636e+00 6.2917290495619866e+00 5.4635588681798142e+00 1 2 -4
872 1 1.7833881803025067e+00 2.1452634788396153e+01 6.3478229988633412e+00 -5 -8 6
1457 1 3.1464824697809668e-01 2.8624095122221824e+01 6.3507221408437902e+00 1 -3 5
195 1 6.0794186300248994e+00 2.7467153843503539e+01 4.8463860309526510e+00 3 -2 3
237 1 5.0593972212641747e+00 1.3512376134564860e+01 7.8867593341614661e+00 12 5 5
478 1 5.1064597025790128e+00 8.6192832840504252e+00 6.2258967100227895e+00 7 6 -11
474 1 4.2362034182296240e+00 7.7957663756220938e+00 8.4311105959917043e+00 5 -1 8
678 1 -1.7711875492144991e-01 2.6503098846138030e+01 8.2144980041608679e+00 -11 -6 -7
43 1 -1.9022526954063221e+00 -7.7429575835601581e+00 8.5505259694583753e+00 -1 -1 -4
1521 1 3.6333019448258770e+00 -4.9090012468658148e+00 4.0297433010743422e+00 7 0 0
815 1 -2.2123348272095633e-01 8.6456352842562723e-01 7.2341059207334109e+00 -5 -5 -1
1406 1 3.0429066168975663e+00 4.6201693363794547e+00 5.6942295018385822e+00 -1 0 5
713 1 8.3078706850719044e+00 -2.9034490672812634e+00 7.4197258318917916e+00 0 3 -4
1443 1 3.9711021708001173e+00 2.7092318058703526e+00 3.7789582269838182e+00 1 4 -5
533 1 3.4491043088174833e+00 -1.1711074680765002e+01 4.5008855603530913e+00 0 1 -2
283 1 6.1099974729870494e+00 2.8813840192577558e+01 7.6253203866109445e+00 5 5 1
1124 1 7.7061358347665649e+00 7.5578503427349837e+00 4.0972848968982660e+00 5 1 7